 Entering Gaussian System, Link 0=gdv
 Input=h2+2Az.gjf
 Output=h2+2Az.log
 Initial command:
 /home1/gaussian/gdv/I03P/gdv/l1.exe "/state/partition1/597576.1.stf_r620.q/Gau-6569.inp" -scrdir="/state/partition1/597576.1.stf_r620.q/"
 Entering Link 1 = /home1/gaussian/gdv/I03P/gdv/l1.exe PID=      6570.
  
 Copyright (c) 1988,1990,1992,1993,1995,1998,2003,2009,2015,
            Gaussian, Inc.  All Rights Reserved.
  
 This is the private, development version of
 the Gaussian(R) DV system of programs. It is based on
 the Gaussian(R) 09 system (copyright 2009, Gaussian, Inc.),
 the Gaussian(R) 03 system (copyright 2003, Gaussian, Inc.),
 the Gaussian(R) 98 system (copyright 1998, Gaussian, Inc.),
 the Gaussian(R) 94 system (copyright 1995, Gaussian, Inc.),
 the Gaussian 92(TM) system (copyright 1992, Gaussian, Inc.),
 the Gaussian 90(TM) system (copyright 1990, Gaussian, Inc.),
 the Gaussian 88(TM) system (copyright 1988, Gaussian, Inc.),
 the Gaussian 86(TM) system (copyright 1986, Carnegie Mellon
 University), and the Gaussian 82(TM) system (copyright 1983,
 Carnegie Mellon University). Gaussian is a federally registered
 trademark of Gaussian, Inc.
  
 This software contains proprietary and confidential information,
 including trade secrets, belonging to Gaussian, Inc.
  
 This software is provided under written license and may be
 used, copied, transmitted, or stored only in accord with that
 written license.
  
 The following legend is applicable only to US Government
 contracts under FAR:
  
                    RESTRICTED RIGHTS LEGEND
  
 Use, reproduction and disclosure by the US Government is
 subject to restrictions as set forth in subparagraphs (a)
 and (c) of the Commercial Computer Software - Restricted
 Rights clause in FAR 52.227-19.
  
 Gaussian, Inc.
 340 Quinnipiac St., Bldg. 40, Wallingford CT 06492
  
  
 ---------------------------------------------------------------
 Warning -- This program may not be used in any manner that
 competes with the business of Gaussian, Inc. or will provide
 assistance to any competitor of Gaussian, Inc.  The licensee
 of this program is prohibited from giving any competitor of
 Gaussian, Inc. access to this program.  By using this program,
 the user acknowledges that Gaussian, Inc. is engaged in the
 business of creating and licensing software in the field of
 computational chemistry and represents and warrants to the
 licensee that it is not a competitor of Gaussian, Inc. and that
 it will not use this program in any manner prohibited above.
 ---------------------------------------------------------------
  

 Cite this work as:
 Gaussian Development Version, Revision I.03+,
 M. J. Frisch, G. W. Trucks, H. B. Schlegel, G. E. Scuseria, 
 M. A. Robb, J. R. Cheeseman, G. Scalmani, V. Barone, B. Mennucci, 
 G. A. Petersson, H. Nakatsuji, M. Caricato, X. Li, H. P. Hratchian, 
 J. Bloino, B. G. Janesko, A. F. Izmaylov, A. Marenich, F. Lipparini, 
 G. Zheng, J. L. Sonnenberg, W. Liang, M. Hada, M. Ehara, K. Toyota, 
 R. Fukuda, J. Hasegawa, M. Ishida, T. Nakajima, Y. Honda, O. Kitao, 
 H. Nakai, T. Vreven, K. Throssell, J. A. Montgomery, Jr., 
 J. E. Peralta, F. Ogliaro, M. Bearpark, J. J. Heyd, E. Brothers, 
 K. N. Kudin, V. N. Staroverov, T. Keith, R. Kobayashi, J. Normand, 
 K. Raghavachari, A. Rendell, J. C. Burant, S. S. Iyengar, J. Tomasi, 
 M. Cossi, N. Rega, J. M. Millam, M. Klene, J. E. Knox, J. B. Cross, 
 V. Bakken, C. Adamo, J. Jaramillo, R. Gomperts, R. E. Stratmann, 
 O. Yazyev, A. J. Austin, R. Cammi, C. Pomelli, J. W. Ochterski, 
 R. L. Martin, K. Morokuma, V. G. Zakrzewski, G. A. Voth, 
 P. Salvador, J. J. Dannenberg, S. Dapprich, P. V. Parandekar, 
 N. J. Mayhall, A. D. Daniels, O. Farkas, J. B. Foresman, 
 J. V. Ortiz, J. Cioslowski, and D. J. Fox, 
 Gaussian, Inc., Wallingford CT, 2014.
 
 *******************************************
 Gaussian DV:  ES64L-GDVRevI.03+  2-May-2015
                 20-Dec-2016 
 *******************************************
 %chk=h2+2Az.chk
 %subst l912 /home2/plestran/devel/guga
 %mem=12GB
 %nproc=8
 Will use up to    8 processors via shared memory.
 ----------------------------------------------------------------------
 #p nonstd 1/38=1/1; 2/12=2,15=1,17=6,18=5,40=1/2; 3/5=16,6=1,7=10,25=2
 0,30=1/1,2,3,20; 4//1; 5/5=2,38=5/2; 8/6=3,9=120000,10=1/1,4; 9/1=1638
 4,5=1,7=46,14=1,15=10000,16=10000,17=2,33=0/12; 99/5=1,9=1/99;
 ----------------------------------------------------------------------
 1/38=1/1;
 2/12=2,15=1,17=6,18=5,40=1/2;
 3/5=16,6=1,7=10,25=20,30=1/1,2,3,20;
 4//1;
 5/5=2,38=5/2;
 8/6=3,9=120000,10=1/1,4;
 9/1=16384,5=1,7=46,14=1,15=10000,16=10000,17=2/12;
 99/5=1,9=1/99;
 Leave Link    1 at Tue Dec 20 08:06:48 2016, MaxMem=  1610612736 cpu:               0.2 elap:               0.0
 (Enter /home1/gaussian/gdv/I03P/gdv/l101.exe)
 ----------------------------------------------------------------------
 H2 TD-ROCIS polarizibility using 632.8 nm light (1.9593 eV) w/ 0.001 a
 .u. intensity (3.51E13 W/cm2) for Keldysh=1.927 Time Step = 0.1 au (0.
 0024 fs) for 1000 steps (~24 fs) Linear ramp for 1 cycle and then cons
 tant for rest of sim
 ----------------------------------------------------------------------
 Symbolic Z-matrix:
 Charge =  0 Multiplicity = 1
 H                     0.        0.        0.75 
 H                     0.        0.       -0.75 
 
 ITRead=  0  0
 MicOpt= -1 -1
 NAtoms=      2 NQM=        2 NQMF=       0 NMMI=      0 NMMIF=      0
                NMic=       0 NMicF=      0.
                    Isotopes and Nuclear Properties:
 (Nuclear quadrupole moments (NQMom) in fm**2, nuclear magnetic moments (NMagM)
  in nuclear magnetons)

  Atom         1           2
 IAtWgt=           1           1
 AtmWgt=   1.0078250   1.0078250
 NucSpn=           1           1
 AtZEff=   0.0000000   0.0000000
 NQMom=    0.0000000   0.0000000
 NMagM=    2.7928460   2.7928460
 AtZNuc=   1.0000000   1.0000000
 Leave Link  101 at Tue Dec 20 08:06:48 2016, MaxMem=  1610612736 cpu:               0.7 elap:               0.1
 (Enter /home1/gaussian/gdv/I03P/gdv/l202.exe)
                          Input orientation:                          
 ---------------------------------------------------------------------
 Center     Atomic      Atomic             Coordinates (Angstroms)
 Number     Number       Type             X           Y           Z
 ---------------------------------------------------------------------
      1          1           0        0.000000    0.000000    0.750000
      2          1           0        0.000000    0.000000   -0.750000
 ---------------------------------------------------------------------
 Symmetry turned off by external request.
 Stoichiometry    H2
 Framework group  D*H[C*(H.H)]
 Deg. of freedom     1
 Full point group                 D*H     NOp   8
 Rotational constants (GHZ):      0.0000000    445.7378706    445.7378706
 Leave Link  202 at Tue Dec 20 08:06:48 2016, MaxMem=  1610612736 cpu:               0.1 elap:               0.0
 (Enter /home1/gaussian/gdv/I03P/gdv/l301.exe)
 Standard basis: Aug-CC-pVTZ (5D, 7F)
 Ernie: Thresh=  0.10000D-02 Tol=  0.10000D-05 Strict=F.
    46 basis functions,    54 primitive gaussians,    50 cartesian basis functions
     1 alpha electrons        1 beta electrons
       nuclear repulsion energy         0.3527848073 Hartrees.
 IExCor=    0 DFT=F Ex=HF Corr=None ExCW=0 ScaHFX=  1.000000
 ScaDFX=  1.000000  1.000000  1.000000  1.000000 ScalE2=  1.000000  1.000000
 IRadAn=      0 IRanWt=     -1 IRanGd=            0 ICorTp=0 IEmpDi=  4
 NAtoms=    2 NActive=    2 NUniq=    2 SFac= 1.00D+00 NAtFMM=   60 NAOKFM=F Big=F
 Integral buffers will be    131072 words long.
 Regular integral format.
 Two-electron integral symmetry is turned off.
 Leave Link  301 at Tue Dec 20 08:06:48 2016, MaxMem=  1610612736 cpu:               0.4 elap:               0.1
 (Enter /home1/gaussian/gdv/I03P/gdv/l302.exe)
 NPDir=0 NMtPBC=     1 NCelOv=     1 NCel=       1 NClECP=     1 NCelD=      1
         NCelK=      1 NCelE2=     1 NClLst=     1 CellRange=     0.0.
 One-electron integrals computed using PRISM.
 One-electron integral symmetry used in STVInt
 NBasis=    46 RedAO= T EigKep=  1.54D-03  NBF=    46
 NBsUse=    46 1.00D-06 EigRej= -1.00D+00 NBFU=    46
 Leave Link  302 at Tue Dec 20 08:06:48 2016, MaxMem=  1610612736 cpu:               1.0 elap:               0.1
 (Enter /home1/gaussian/gdv/I03P/gdv/l303.exe)
 DipDrv:  MaxL=1.
 Leave Link  303 at Tue Dec 20 08:06:48 2016, MaxMem=  1610612736 cpu:               0.2 elap:               0.0
 (Enter /home1/gaussian/gdv/I03P/gdv/l320.exe)
 Enter DskPsm, NBasis=  46 NBas6D=  50 NShell=  18 IDoSP=4.
 Out2e will use a cutoff of  1.00D-10
 FoFCou: FMM=F IPFlag=           0 FMFlag=           0 FMFlg1=           0
         NFxFlg=           0 DoJE=F BraDBF=F KetDBF=F FulRan=T
         wScrn=  0.000000 ICntrl=       600 IOpCl=  9 I1Cent=           0 NGrid=           0
         NMat0=    0 NMatS0=      0 NMatT0=    0 NMatD0=    0 NMtDS0=    0 NMtDT0=    0
 Symmetry not used in FoFCou.
       129929 integrals produced for a total of       129929.
 Leave Link  320 at Tue Dec 20 08:06:48 2016, MaxMem=  1610612736 cpu:               0.8 elap:               0.1
 (Enter /home1/gaussian/gdv/I03P/gdv/l401.exe)
 ExpMin= 2.53D-02 ExpMax= 3.39D+01 ExpMxC= 3.39D+01 IAcc=3 IRadAn=         5 AccDes= 0.00D+00
 Harris functional with IExCor=  205 and IRadAn=       5 diagonalized for initial guess.
 HarFok:  IExCor=  205 AccDes= 0.00D+00 IRadAn=         5 IDoV= 1 UseB2=F ITyADJ=14
 ICtDFT=  3500011 ScaDFX=  1.000000  1.000000  1.000000  1.000000
 FoFCou: FMM=F IPFlag=           0 FMFlag=      100000 FMFlg1=           0
         NFxFlg=           0 DoJE=T BraDBF=F KetDBF=T FulRan=T
         wScrn=  0.000000 ICntrl=       500 IOpCl=  0 I1Cent=   200000004 NGrid=           0
         NMat0=    1 NMatS0=      1 NMatT0=    0 NMatD0=    1 NMtDS0=    0 NMtDT0=    0
 Symmetry not used in FoFCou.
 Harris En= -1.07292250501878    
 JPrj=0 DoOrth=F DoCkMO=F.
 Leave Link  401 at Tue Dec 20 08:06:48 2016, MaxMem=  1610612736 cpu:               1.1 elap:               0.1
 (Enter /home1/gaussian/gdv/I03P/gdv/l502.exe)
 Keep R1 ints in memory in canonical form, NReq=2233588.
 FoFCou: FMM=F IPFlag=           0 FMFlag=           0 FMFlg1=           0
         NFxFlg=           0 DoJE=F BraDBF=F KetDBF=F FulRan=T
         wScrn=  0.000000 ICntrl=       600 IOpCl=  0 I1Cent=           0 NGrid=           0
         NMat0=    1 NMatS0=   1081 NMatT0=    0 NMatD0=    1 NMtDS0=    0 NMtDT0=    0
 Symmetry not used in FoFCou.
 Two-electron integral symmetry not used.
 Closed shell SCF:
 Using DIIS extrapolation, IDIIS=  1040.
 NGot=  1610612736 LenX=  1610022043 LenY=  1610019102
 Requested convergence on RMS density matrix=1.00D-08 within 128 cycles.
 Requested convergence on MAX density matrix=1.00D-06.
 Requested convergence on             energy=1.00D-06.
 No special actions if energy rises.

 Cycle   1  Pass 1  IDiag  1:
 E= -1.00325112513280    
 DIIS: error= 9.81D-03 at cycle   1 NSaved=   1.
 NSaved= 1 IEnMin= 1 EnMin= -1.00325112513280     IErMin= 1 ErrMin= 9.81D-03
 ErrMax= 9.81D-03  0.00D+00 EMaxC= 1.00D-01 BMatC= 1.01D-03 BMatP= 1.01D-03
 IDIUse=3 WtCom= 9.02D-01 WtEn= 9.81D-02
 Coeff-Com:  0.100D+01
 Coeff-En:   0.100D+01
 Coeff:      0.100D+01
 Gap=     0.477 Goal=   None    Shift=    0.000
 GapD=    0.477 DampG=2.000 DampE=1.000 DampFc=2.0000 IDamp=-1.
 RMSDP=4.67D-04 MaxDP=5.34D-03              OVMax= 2.07D-02

 Cycle   2  Pass 1  IDiag  1:
 E= -1.00458877810640     Delta-E=       -0.001337652974 Rises=F Damp=F
 DIIS: error= 1.50D-03 at cycle   2 NSaved=   2.
 NSaved= 2 IEnMin= 2 EnMin= -1.00458877810640     IErMin= 2 ErrMin= 1.50D-03
 ErrMax= 1.50D-03  0.00D+00 EMaxC= 1.00D-01 BMatC= 2.86D-05 BMatP= 1.01D-03
 IDIUse=3 WtCom= 9.85D-01 WtEn= 1.50D-02
 Coeff-Com: -0.177D+00 0.118D+01
 Coeff-En:   0.000D+00 0.100D+01
 Coeff:     -0.175D+00 0.117D+01
 Gap=     0.454 Goal=   None    Shift=    0.000
 RMSDP=1.49D-04 MaxDP=2.28D-03 DE=-1.34D-03 OVMax= 5.69D-03

 Cycle   3  Pass 1  IDiag  1:
 E= -1.00465017983750     Delta-E=       -0.000061401731 Rises=F Damp=F
 DIIS: error= 2.11D-04 at cycle   3 NSaved=   3.
 NSaved= 3 IEnMin= 3 EnMin= -1.00465017983750     IErMin= 3 ErrMin= 2.11D-04
 ErrMax= 2.11D-04  0.00D+00 EMaxC= 1.00D-01 BMatC= 3.67D-07 BMatP= 2.86D-05
 IDIUse=3 WtCom= 9.98D-01 WtEn= 2.11D-03
 Coeff-Com:  0.476D-01-0.353D+00 0.131D+01
 Coeff-En:   0.000D+00 0.000D+00 0.100D+01
 Coeff:      0.475D-01-0.352D+00 0.130D+01
 Gap=     0.454 Goal=   None    Shift=    0.000
 RMSDP=2.70D-05 MaxDP=4.05D-04 DE=-6.14D-05 OVMax= 9.50D-04

 Cycle   4  Pass 1  IDiag  1:
 E= -1.00465132668484     Delta-E=       -0.000001146847 Rises=F Damp=F
 DIIS: error= 1.03D-05 at cycle   4 NSaved=   4.
 NSaved= 4 IEnMin= 4 EnMin= -1.00465132668484     IErMin= 4 ErrMin= 1.03D-05
 ErrMax= 1.03D-05  0.00D+00 EMaxC= 1.00D-01 BMatC= 1.47D-09 BMatP= 3.67D-07
 IDIUse=1 WtCom= 1.00D+00 WtEn= 0.00D+00
 Coeff-Com: -0.128D-01 0.961D-01-0.381D+00 0.130D+01
 Coeff:     -0.128D-01 0.961D-01-0.381D+00 0.130D+01
 Gap=     0.454 Goal=   None    Shift=    0.000
 RMSDP=2.49D-06 MaxDP=2.87D-05 DE=-1.15D-06 OVMax= 7.14D-05

 Cycle   5  Pass 1  IDiag  1:
 E= -1.00465133202184     Delta-E=       -0.000000005337 Rises=F Damp=F
 DIIS: error= 2.46D-07 at cycle   5 NSaved=   5.
 NSaved= 5 IEnMin= 5 EnMin= -1.00465133202184     IErMin= 5 ErrMin= 2.46D-07
 ErrMax= 2.46D-07  0.00D+00 EMaxC= 1.00D-01 BMatC= 8.54D-13 BMatP= 1.47D-09
 IDIUse=1 WtCom= 1.00D+00 WtEn= 0.00D+00
 Coeff-Com:  0.106D-02-0.799D-02 0.321D-01-0.118D+00 0.109D+01
 Coeff:      0.106D-02-0.799D-02 0.321D-01-0.118D+00 0.109D+01
 Gap=     0.454 Goal=   None    Shift=    0.000
 RMSDP=4.49D-08 MaxDP=6.30D-07 DE=-5.34D-09 OVMax= 1.17D-06

 Cycle   6  Pass 1  IDiag  1:
 E= -1.00465133202398     Delta-E=       -0.000000000002 Rises=F Damp=F
 DIIS: error= 3.27D-08 at cycle   6 NSaved=   6.
 NSaved= 6 IEnMin= 6 EnMin= -1.00465133202398     IErMin= 6 ErrMin= 3.27D-08
 ErrMax= 3.27D-08  0.00D+00 EMaxC= 1.00D-01 BMatC= 9.05D-15 BMatP= 8.54D-13
 IDIUse=1 WtCom= 1.00D+00 WtEn= 0.00D+00
 Coeff-Com:  0.196D-05-0.551D-05-0.329D-04 0.107D-02-0.128D+00 0.113D+01
 Coeff:      0.196D-05-0.551D-05-0.329D-04 0.107D-02-0.128D+00 0.113D+01
 Gap=     0.454 Goal=   None    Shift=    0.000
 RMSDP=3.49D-09 MaxDP=4.69D-08 DE=-2.15D-12 OVMax= 1.30D-07

 SCF Done:  E(RHF) =  -1.00465133202     A.U. after    6 cycles
            NFock=  6  Conv=0.35D-08     -V/T= 2.3788
 KE= 7.286416811800D-01 PE=-2.562113082407D+00 EE= 4.760352619234D-01
 Leave Link  502 at Tue Dec 20 08:06:48 2016, MaxMem=  1610612736 cpu:               0.9 elap:               0.1
 (Enter /home1/gaussian/gdv/I03P/gdv/l801.exe)
 Windowed orbitals will be sorted by symmetry type.
 Range of M.O.s used for correlation:     1    46
 NBasis=    46 NAE=     1 NBE=     1 NFC=     0 NFV=     0
 NROrb=     46 NOA=     1 NOB=     1 NVA=    45 NVB=    45
 Leave Link  801 at Tue Dec 20 08:06:48 2016, MaxMem=  1610612736 cpu:               0.1 elap:               0.0
 (Enter /home1/gaussian/gdv/I03P/gdv/l804.exe)
 Closed-shell transformation, MDV=  1610612736 ITran=3 ISComp=1.
 Unit  1 TFree=         71264 TCopy=        197523.
 Semi-Direct transformation.
 ModeAB=           2 MOrb=             1 LenV=    1610409565
 LASXX=         2025 LTotXX=        2025 LenRXX=        2025
 LTotAB=        3106 MaxLAS=       58650 LenRXY=       58650
 NonZer=       62238 LenScr=      785920 LnRSAI=           0
 LnScr1=           0 LExtra=           0 Total=       846595
 MaxDsk=          -1 SrtSym=           F ITran=            3
 DoSDTr:  NPSUse=  8
 JobTyp=0 Pass  1:  I=   1 to   1.
 (rs|ai) integrals will be sorted in core.
 Complete sort for first half transformation.
 First half transformation complete.
 Complete sort for second half transformation.
 Second half transformation complete.
 Spin components of T(2) and E(2):
     alpha-alpha T2 =       0.0000000000D+00 E2=      0.0000000000D+00
     alpha-beta  T2 =       0.2785634283D-01 E2=     -0.4059185837D-01
     beta-beta   T2 =       0.0000000000D+00 E2=      0.0000000000D+00
 ANorm=    0.1013832502D+01
 E2 =    -0.4059185837D-01 EUMP2 =    -0.10452431903942D+01
 Leave Link  804 at Tue Dec 20 08:06:49 2016, MaxMem=  1610612736 cpu:               0.6 elap:               0.1
 (Enter /home2/plestran/devel/guga/l912.exe)
 Top of link  912.    Tue Dec 20 08:06:49 2016        0.00 cpu,        0.00 elapsed
 *************************************************************************************************************
 GUGA-based CI
 *************************************************************************************************************
 Number of Roots =  46
 Level of Excitation        =    1
 Spin Multiplicity =  1
 Total number of electrons  =    2
 Total Number of CSFs =       46
 -------------------------------------------------------------------------------------------------------------
 Top of DavDag.       Tue Dec 20 08:06:50 2016       14.78 cpu,        1.85 elapsed
 Davidson Disk Diagonalization is being used:
 MVecIn=     46 MSekIn=   46 NVConv=   46 NVConT=    0 MConv=   46 WhenSc=  2 IFact=    3 FinIt=T
 NRoot=    46 Conv= 1.00D-08 ConvT= 1.00D-08 MaxItI=         128 Dim=          46 Max sub=   460
 Iteration     1 internal iteration     1 dimension is    46
 Eigenvalues at current iteration:
 Root      1 :    -1.357436139304004
 Root      2 :    -1.064242262297563
 Root      3 :    -1.010595913634153
 Root      4 :    -0.961115969058047
 Root      5 :    -0.959166445504490
 Root      6 :    -0.959166445504489
 Root      7 :    -0.855300280799907
 Root      8 :    -0.850485743902062
 Root      9 :    -0.850485743902060
 Root     10 :    -0.765288458135840
 Root     11 :    -0.668861356408393
 Root     12 :    -0.563414775677648
 Root     13 :    -0.472810962362498
 Root     14 :    -0.472810962362498
 Root     15 :    -0.374210324694162
 Root     16 :    -0.374210324694160
 Root     17 :    -0.277277808307899
 Root     18 :    -0.260077285485197
 Root     19 :    -0.260077285485197
 Root     20 :    -0.245316959749893
 Root     21 :    -0.245316959749892
 Root     22 :    -0.206656531962512
 Root     23 :    -0.206656531962511
 Root     24 :    -0.203216453290588
 Root     25 :     0.031978128355828
 Root     26 :     0.144713930305767
 Root     27 :     0.144713930305770
 Root     28 :     0.516728295331107
 Root     29 :     1.304392302364947
 Root     30 :     1.713168305926247
 Root     31 :     2.226594924175771
 Root     32 :     2.335369750087489
 Root     33 :     2.335369750087517
 Root     34 :     2.471922500911905
 Root     35 :     2.471922500911928
 Root     36 :     2.553714632368216
 Root     37 :     2.553714632368244
 Root     38 :     2.712070034247222
 Root     39 :     2.712070034247228
 Root     40 :     2.802738942620171
 Root     41 :     2.802738942620197
 Root     42 :     2.834023952744671
 Root     43 :     2.834023952744683
 Root     44 :     3.026727912950332
 Root     45 :     3.077623590203108
 Root     46 :     3.813242317598694
 DEMax= 0.00D+00
 State    1 2nd order lowering   -0.266472815494E-30 norm 1.29D-15
 State    2 2nd order lowering   -0.334839473660E-29 norm 1.89D-14
 State    3 2nd order lowering   -0.981625281514E-29 norm 7.10D-14
 State    4 2nd order lowering   -0.267834852845E-28 norm 9.38D-13
 State    5 2nd order lowering   -0.694324270089E-27 norm 1.10D-12
 State    6 2nd order lowering   -0.327060447838E-27 norm 7.56D-13
 State    7 2nd order lowering   -0.433075457551E-27 norm 3.55D-13
 State    8 2nd order lowering    0.757864481313E-29 norm 1.27D-13
 State    9 2nd order lowering   -0.573030362924E-27 norm 6.07D-13
 State   10 2nd order lowering   -0.844032705361E-27 norm 1.35D-12
 State   11 2nd order lowering    0.113986841409E-27 norm 1.88D-13
 State   12 2nd order lowering    0.530669662601E-28 norm 4.56D-13
 State   13 2nd order lowering   -0.197980148801E-26 norm 3.38D-12
 State   14 2nd order lowering   -0.176495775180E-25 norm 1.01D-11
 State   15 2nd order lowering    0.513645028616E-26 norm 6.35D-12
 State   16 2nd order lowering    0.873130695325E-26 norm 8.27D-12
 State   17 2nd order lowering   -0.108627467184E-28 norm 5.31D-14
 State   18 2nd order lowering   -0.160656167920E-26 norm 2.40D-12
 State   19 2nd order lowering   -0.130883859979E-26 norm 2.16D-12
 State   20 2nd order lowering   -0.254202225537E-26 norm 1.61D-12
 State   21 2nd order lowering   -0.235499517153E-26 norm 1.55D-12
 State   22 2nd order lowering   -0.260470644170E-26 norm 3.79D-12
 State   23 2nd order lowering   -0.321349532577E-25 norm 1.33D-11
 State   24 2nd order lowering    0.337159902031E-27 norm 5.85D-13
 State   25 2nd order lowering    0.708472882850E-27 norm 6.56D-13
 State   26 2nd order lowering    0.774224181786E-27 norm 6.32D-13
 State   27 2nd order lowering    0.349779153752E-27 norm 4.25D-13
 State   28 2nd order lowering    0.382788644148E-27 norm 6.06D-13
 State   29 2nd order lowering    0.433569596314E-28 norm 2.95D-13
 State   30 2nd order lowering    0.148695915611E-26 norm 1.67D-12
 State   31 2nd order lowering    0.512403060169E-26 norm 2.93D-12
 State   32 2nd order lowering    0.654085508088E-26 norm 6.34D-12
 State   33 2nd order lowering    0.219924263858E-25 norm 1.16D-11
 State   34 2nd order lowering    0.133721024690E-27 norm 1.05D-12
 State   35 2nd order lowering    0.472630816425E-26 norm 5.23D-12
 State   36 2nd order lowering    0.149705294734E-26 norm 2.31D-12
 State   37 2nd order lowering    0.321936263885E-26 norm 3.39D-12
 State   38 2nd order lowering    0.601028721350E-26 norm 3.59D-12
 State   39 2nd order lowering    0.408049851183E-26 norm 2.97D-12
 State   40 2nd order lowering   -0.679542666408E-27 norm 3.27D-13
 State   41 2nd order lowering   -0.344398791771E-27 norm 2.31D-13
 State   42 2nd order lowering    0.449155555286E-27 norm 2.54D-13
 State   43 2nd order lowering    0.147019830588E-27 norm 1.42D-13
 State   44 2nd order lowering    0.623063112559E-29 norm 5.82D-15
 State   45 2nd order lowering    0.208567349647E-25 norm 6.74D-12
 State   46 2nd order lowering    0.100931187389E-25 norm 3.79D-12
 Convergence achieved for final wavefunctions.
 Bot of DavDag.       Tue Dec 20 08:06:58 2016       57.99 cpu,        7.27 elapsed
 -------------------------------------------------------------------------------------------------------------
 E(CI,Root=   0) =       -1.004651332024    
 E(CI,Root=   1) =      -0.7114574550176    
 E(CI,Root=   2) =      -0.6578111063542    
 E(CI,Root=   3) =      -0.6083311617780    
 E(CI,Root=   4) =      -0.6063816382245    
 E(CI,Root=   5) =      -0.6063816382245    
 E(CI,Root=   6) =      -0.5025154735199    
 E(CI,Root=   7) =      -0.4977009366221    
 E(CI,Root=   8) =      -0.4977009366221    
 E(CI,Root=   9) =      -0.4125036508558    
 E(CI,Root=  10) =      -0.3160765491284    
 E(CI,Root=  11) =      -0.2106299683976    
 E(CI,Root=  12) =      -0.1200261550825    
 E(CI,Root=  13) =      -0.1200261550825    
 E(CI,Root=  14) =      -0.2142551741416E-01
 E(CI,Root=  15) =      -0.2142551741416E-01
 E(CI,Root=  16) =       0.7550699897210E-01
 E(CI,Root=  17) =       0.9270752179480E-01
 E(CI,Root=  18) =       0.9270752179480E-01
 E(CI,Root=  19) =       0.1074678475301    
 E(CI,Root=  20) =       0.1074678475301    
 E(CI,Root=  21) =       0.1461282753175    
 E(CI,Root=  22) =       0.1461282753175    
 E(CI,Root=  23) =       0.1495683539894    
 E(CI,Root=  24) =       0.3847629356358    
 E(CI,Root=  25) =       0.4974987375858    
 E(CI,Root=  26) =       0.4974987375858    
 E(CI,Root=  27) =       0.8695131026111    
 E(CI,Root=  28) =        1.657177109645    
 E(CI,Root=  29) =        2.065953113206    
 E(CI,Root=  30) =        2.579379731456    
 E(CI,Root=  31) =        2.688154557367    
 E(CI,Root=  32) =        2.688154557368    
 E(CI,Root=  33) =        2.824707308192    
 E(CI,Root=  34) =        2.824707308192    
 E(CI,Root=  35) =        2.906499439648    
 E(CI,Root=  36) =        2.906499439648    
 E(CI,Root=  37) =        3.064854841527    
 E(CI,Root=  38) =        3.064854841527    
 E(CI,Root=  39) =        3.155523749900    
 E(CI,Root=  40) =        3.155523749900    
 E(CI,Root=  41) =        3.186808760025    
 E(CI,Root=  42) =        3.186808760025    
 E(CI,Root=  43) =        3.379512720230    
 E(CI,Root=  44) =        3.430408397483    
 E(CI,Root=  45) =        4.166027124879    
 *************************************************************************************************************
 GUGA-based TD-CI
 *************************************************************************************************************
 Step Size =      0.00242 fs       0.10000 a.u.

 External field Parameters:
                             Ex =     0.00000 a.u.
                             Ey =     0.00000 a.u.
                             Ez =     0.00200 a.u.
                      Frequency =     1.95930 eV   Wavelength =   632.79841 nm
                          Phase =     0.00000 rad
                          t(on) =     0.00000 fs,
                         t(off) =  1000.00000 fs

 Split Operator Propagation
 Forming Transition Density
 NP =                    8
 NChunk =                  136
 CI dipole matrix                   1
                1             2             3             4             5 
      1  0.000000D+00
      2  0.000000D+00  0.000000D+00
      3  0.000000D+00  0.000000D+00  0.000000D+00
      4  0.000000D+00  0.000000D+00  0.000000D+00  0.000000D+00
      5 -0.137376D+01  0.000000D+00 -0.135226D+01  0.000000D+00  0.000000D+00
      6 -0.464220D+00  0.000000D+00 -0.456953D+00  0.000000D+00  0.000000D+00
      7  0.000000D+00  0.000000D+00  0.000000D+00  0.000000D+00  0.325902D+00
      8  0.000000D+00 -0.473782D+00  0.000000D+00 -0.153114D+00  0.000000D+00
      9  0.000000D+00  0.146845D+01  0.000000D+00  0.474564D+00  0.000000D+00
     10  0.000000D+00  0.000000D+00  0.000000D+00  0.000000D+00  0.000000D+00
     11  0.000000D+00  0.000000D+00  0.000000D+00  0.000000D+00 -0.113375D+01
     12  0.000000D+00  0.000000D+00  0.000000D+00  0.000000D+00  0.000000D+00
     13  0.000000D+00  0.000000D+00  0.000000D+00  0.000000D+00 -0.682809D-01
     14  0.000000D+00  0.000000D+00  0.000000D+00  0.000000D+00 -0.116760D+01
     15  0.388800D+00  0.000000D+00 -0.848247D+00  0.000000D+00  0.000000D+00
     16 -0.115010D+00  0.000000D+00  0.250918D+00  0.000000D+00  0.000000D+00
     17  0.000000D+00  0.000000D+00  0.000000D+00  0.000000D+00  0.468183D-01
     18  0.000000D+00  0.000000D+00  0.000000D+00  0.000000D+00  0.000000D+00
     19  0.000000D+00  0.000000D+00  0.000000D+00  0.000000D+00  0.000000D+00
     20  0.000000D+00 -0.325869D-01  0.000000D+00 -0.379184D+00  0.000000D+00
     21  0.000000D+00 -0.797932D-01  0.000000D+00 -0.928479D+00  0.000000D+00
     22 -0.157388D+00  0.000000D+00  0.345034D+00  0.000000D+00  0.000000D+00
     23 -0.265876D+00  0.000000D+00  0.582868D+00  0.000000D+00  0.000000D+00
     24  0.000000D+00  0.000000D+00  0.000000D+00  0.000000D+00  0.000000D+00
     25  0.000000D+00  0.000000D+00  0.000000D+00  0.000000D+00 -0.458241D-01
     26  0.000000D+00 -0.772041D-02  0.000000D+00 -0.262819D-02  0.000000D+00
     27  0.000000D+00  0.697894D-01  0.000000D+00  0.237578D-01  0.000000D+00
     28  0.000000D+00  0.000000D+00  0.000000D+00  0.000000D+00  0.000000D+00
     29  0.000000D+00  0.000000D+00  0.000000D+00  0.000000D+00  0.246769D+00
     30  0.000000D+00  0.000000D+00  0.000000D+00  0.000000D+00  0.000000D+00
     31  0.000000D+00  0.000000D+00  0.000000D+00  0.000000D+00 -0.797347D-01
     32  0.241307D-02  0.000000D+00  0.860027D-01  0.000000D+00  0.000000D+00
     33  0.114262D-02  0.000000D+00  0.407233D-01  0.000000D+00  0.000000D+00
     34  0.000000D+00  0.000000D+00  0.000000D+00  0.000000D+00 -0.467675D-01
     35  0.000000D+00  0.000000D+00  0.000000D+00  0.000000D+00  0.239957D+00
     36  0.000000D+00  0.000000D+00  0.000000D+00  0.000000D+00  0.000000D+00
     37  0.000000D+00  0.000000D+00  0.000000D+00  0.000000D+00  0.000000D+00
     38  0.470637D-01  0.000000D+00  0.232275D+00  0.000000D+00  0.000000D+00
     39 -0.463728D-01  0.000000D+00 -0.228865D+00  0.000000D+00  0.000000D+00
     40  0.000000D+00  0.537831D-03  0.000000D+00  0.415618D-02  0.000000D+00
     41  0.000000D+00 -0.119216D-01  0.000000D+00 -0.921261D-01  0.000000D+00
     42  0.000000D+00 -0.922695D-01  0.000000D+00 -0.163253D+00  0.000000D+00
     43  0.000000D+00  0.477906D-01  0.000000D+00  0.845560D-01  0.000000D+00
     44  0.000000D+00  0.000000D+00  0.000000D+00  0.000000D+00  0.326414D-01
     45  0.000000D+00  0.000000D+00  0.000000D+00  0.000000D+00  0.000000D+00
     46  0.000000D+00  0.000000D+00  0.000000D+00  0.000000D+00  0.000000D+00
                6             7             8             9            10 
      6  0.000000D+00
      7  0.110128D+00  0.000000D+00
      8  0.000000D+00  0.000000D+00  0.000000D+00
      9  0.000000D+00  0.000000D+00  0.000000D+00  0.000000D+00
     10  0.000000D+00  0.000000D+00 -0.279420D-01  0.866039D-01  0.000000D+00
     11 -0.383116D+00  0.000000D+00  0.000000D+00  0.000000D+00  0.000000D+00
     12  0.000000D+00  0.000000D+00 -0.400442D+00  0.124114D+01  0.000000D+00
     13 -0.116760D+01  0.000000D+00  0.000000D+00  0.000000D+00  0.000000D+00
     14  0.682809D-01  0.000000D+00  0.000000D+00  0.000000D+00  0.000000D+00
     15  0.000000D+00 -0.634661D+00  0.000000D+00  0.000000D+00  0.000000D+00
     16  0.000000D+00  0.187738D+00  0.000000D+00  0.000000D+00  0.000000D+00
     17  0.158208D-01  0.000000D+00  0.000000D+00  0.000000D+00  0.000000D+00
     18  0.000000D+00  0.000000D+00 -0.103745D+01 -0.306398D+00  0.000000D+00
     19  0.000000D+00  0.000000D+00 -0.306398D+00  0.103745D+01  0.000000D+00
     20  0.000000D+00  0.000000D+00  0.000000D+00  0.000000D+00 -0.761089D-01
     21  0.000000D+00  0.000000D+00  0.000000D+00  0.000000D+00 -0.186362D+00
     22  0.000000D+00 -0.455633D+00  0.000000D+00  0.000000D+00  0.000000D+00
     23  0.000000D+00 -0.769703D+00  0.000000D+00  0.000000D+00  0.000000D+00
     24  0.000000D+00  0.000000D+00  0.114215D+00 -0.354001D+00  0.000000D+00
     25 -0.154848D-01  0.000000D+00  0.000000D+00  0.000000D+00  0.000000D+00
     26  0.000000D+00  0.000000D+00  0.000000D+00  0.000000D+00 -0.831811D-01
     27  0.000000D+00  0.000000D+00  0.000000D+00  0.000000D+00  0.751924D+00
     28  0.000000D+00  0.000000D+00 -0.762450D-01  0.236315D+00  0.000000D+00
     29  0.833879D-01  0.000000D+00  0.000000D+00  0.000000D+00  0.000000D+00
     30  0.000000D+00  0.000000D+00  0.952816D-01 -0.295318D+00  0.000000D+00
     31 -0.269438D-01  0.000000D+00  0.000000D+00  0.000000D+00  0.000000D+00
     32  0.000000D+00  0.251432D+00  0.000000D+00  0.000000D+00  0.000000D+00
     33  0.000000D+00  0.119056D+00  0.000000D+00  0.000000D+00  0.000000D+00
     34  0.239957D+00  0.000000D+00  0.000000D+00  0.000000D+00  0.000000D+00
     35  0.467675D-01  0.000000D+00  0.000000D+00  0.000000D+00  0.000000D+00
     36  0.000000D+00  0.000000D+00  0.169619D+00  0.190818D+00  0.000000D+00
     37  0.000000D+00  0.000000D+00  0.190818D+00 -0.169619D+00  0.000000D+00
     38  0.000000D+00 -0.903488D-01  0.000000D+00  0.000000D+00  0.000000D+00
     39  0.000000D+00  0.890223D-01  0.000000D+00  0.000000D+00  0.000000D+00
     40  0.000000D+00  0.000000D+00  0.000000D+00  0.000000D+00  0.866071D-02
     41  0.000000D+00  0.000000D+00  0.000000D+00  0.000000D+00 -0.191974D+00
     42  0.000000D+00  0.000000D+00  0.000000D+00  0.000000D+00  0.940428D-02
     43  0.000000D+00  0.000000D+00  0.000000D+00  0.000000D+00 -0.487091D-02
     44  0.110301D-01  0.000000D+00  0.000000D+00  0.000000D+00  0.000000D+00
     45  0.000000D+00  0.000000D+00 -0.193707D-01  0.600378D-01  0.000000D+00
     46  0.000000D+00  0.000000D+00  0.138932D-01 -0.430608D-01  0.000000D+00
               11            12            13            14            15 
     11  0.000000D+00
     12  0.000000D+00  0.000000D+00
     13  0.000000D+00  0.000000D+00  0.000000D+00
     14  0.000000D+00  0.000000D+00  0.000000D+00  0.000000D+00
     15 -0.563871D-01  0.000000D+00  0.741384D-01  0.932163D-01  0.000000D+00
     16  0.166797D-01  0.000000D+00  0.932163D-01 -0.741384D-01  0.000000D+00
     17  0.000000D+00  0.000000D+00  0.000000D+00  0.000000D+00  0.750747D-01
     18  0.000000D+00  0.000000D+00  0.000000D+00  0.000000D+00  0.000000D+00
     19  0.000000D+00  0.000000D+00  0.000000D+00  0.000000D+00  0.000000D+00
     20  0.000000D+00 -0.187224D+00  0.000000D+00  0.000000D+00  0.000000D+00
     21  0.000000D+00 -0.458442D+00  0.000000D+00  0.000000D+00  0.000000D+00
     22  0.225520D+00  0.000000D+00 -0.434362D-01  0.568980D-01  0.000000D+00
     23  0.380973D+00  0.000000D+00  0.568980D-01  0.434362D-01  0.000000D+00
     24  0.000000D+00  0.000000D+00  0.000000D+00  0.000000D+00  0.000000D+00
     25  0.000000D+00  0.000000D+00  0.000000D+00  0.000000D+00 -0.132937D+00
     26  0.000000D+00  0.125344D-01  0.000000D+00  0.000000D+00  0.000000D+00
     27  0.000000D+00 -0.113306D+00  0.000000D+00  0.000000D+00  0.000000D+00
     28  0.000000D+00  0.000000D+00  0.000000D+00  0.000000D+00  0.000000D+00
     29  0.000000D+00  0.000000D+00  0.000000D+00  0.000000D+00  0.358037D+00
     30  0.000000D+00  0.000000D+00  0.000000D+00  0.000000D+00  0.000000D+00
     31  0.000000D+00  0.000000D+00  0.000000D+00  0.000000D+00 -0.284884D+00
     32 -0.128684D+00  0.000000D+00  0.390630D-02 -0.673344D-01  0.000000D+00
     33 -0.609333D-01  0.000000D+00 -0.673344D-01 -0.390630D-02  0.000000D+00
     34  0.000000D+00  0.000000D+00  0.000000D+00  0.000000D+00  0.116372D+00
     35  0.000000D+00  0.000000D+00  0.000000D+00  0.000000D+00  0.259896D+00
     36  0.000000D+00  0.000000D+00  0.000000D+00  0.000000D+00  0.000000D+00
     37  0.000000D+00  0.000000D+00  0.000000D+00  0.000000D+00  0.000000D+00
     38 -0.190769D+00  0.000000D+00  0.625877D-01 -0.150666D+00  0.000000D+00
     39  0.187968D+00  0.000000D+00  0.150666D+00  0.625877D-01  0.000000D+00
     40  0.000000D+00  0.364217D-02  0.000000D+00  0.000000D+00  0.000000D+00
     41  0.000000D+00 -0.807325D-01  0.000000D+00  0.000000D+00  0.000000D+00
     42  0.000000D+00  0.201531D+00  0.000000D+00  0.000000D+00  0.000000D+00
     43  0.000000D+00 -0.104382D+00  0.000000D+00  0.000000D+00  0.000000D+00
     44  0.000000D+00  0.000000D+00  0.000000D+00  0.000000D+00  0.211305D+00
     45  0.000000D+00  0.000000D+00  0.000000D+00  0.000000D+00  0.000000D+00
     46  0.000000D+00  0.000000D+00  0.000000D+00  0.000000D+00  0.000000D+00
               16            17            18            19            20 
     16  0.000000D+00
     17 -0.222077D-01  0.000000D+00
     18  0.000000D+00  0.000000D+00  0.000000D+00
     19  0.000000D+00  0.000000D+00  0.000000D+00  0.000000D+00
     20  0.000000D+00  0.000000D+00  0.134081D+00  0.508969D-01  0.000000D+00
     21  0.000000D+00  0.000000D+00 -0.508969D-01  0.134081D+00  0.000000D+00
     22  0.000000D+00 -0.237173D-01  0.000000D+00  0.000000D+00  0.000000D+00
     23  0.000000D+00 -0.400657D-01  0.000000D+00  0.000000D+00  0.000000D+00
     24  0.000000D+00  0.000000D+00  0.000000D+00  0.000000D+00  0.346682D-01
     25  0.393238D-01  0.000000D+00  0.000000D+00  0.000000D+00  0.000000D+00
     26  0.000000D+00  0.000000D+00  0.172530D+00 -0.234517D-01  0.000000D+00
     27  0.000000D+00  0.000000D+00  0.234517D-01  0.172530D+00  0.000000D+00
     28  0.000000D+00  0.000000D+00  0.000000D+00  0.000000D+00 -0.187226D+00
     29 -0.105910D+00  0.000000D+00  0.000000D+00  0.000000D+00  0.000000D+00
     30  0.000000D+00  0.000000D+00  0.000000D+00  0.000000D+00  0.200435D+00
     31  0.842708D-01  0.000000D+00  0.000000D+00  0.000000D+00  0.000000D+00
     32  0.000000D+00  0.449053D+00  0.000000D+00  0.000000D+00  0.000000D+00
     33  0.000000D+00  0.212632D+00  0.000000D+00  0.000000D+00  0.000000D+00
     34  0.259896D+00  0.000000D+00  0.000000D+00  0.000000D+00  0.000000D+00
     35 -0.116372D+00  0.000000D+00  0.000000D+00  0.000000D+00  0.000000D+00
     36  0.000000D+00  0.000000D+00  0.000000D+00  0.000000D+00  0.202492D+00
     37  0.000000D+00  0.000000D+00  0.000000D+00  0.000000D+00  0.265797D+00
     38  0.000000D+00 -0.548923D-01  0.000000D+00  0.000000D+00  0.000000D+00
     39  0.000000D+00  0.540864D-01  0.000000D+00  0.000000D+00  0.000000D+00
     40  0.000000D+00  0.000000D+00 -0.536842D-01  0.376443D-02  0.000000D+00
     41  0.000000D+00  0.000000D+00 -0.376443D-02 -0.536842D-01  0.000000D+00
     42  0.000000D+00  0.000000D+00  0.119030D+00  0.216427D+00  0.000000D+00
     43  0.000000D+00  0.000000D+00  0.216427D+00 -0.119030D+00  0.000000D+00
     44 -0.625057D-01  0.000000D+00  0.000000D+00  0.000000D+00  0.000000D+00
     45  0.000000D+00  0.000000D+00  0.000000D+00  0.000000D+00 -0.464668D-01
     46  0.000000D+00  0.000000D+00  0.000000D+00  0.000000D+00  0.783037D-01
               21            22            23            24            25 
     21  0.000000D+00
     22  0.000000D+00  0.000000D+00
     23  0.000000D+00  0.000000D+00  0.000000D+00
     24  0.848896D-01  0.000000D+00  0.000000D+00  0.000000D+00
     25  0.000000D+00 -0.252627D+00 -0.426765D+00  0.000000D+00  0.000000D+00
     26  0.000000D+00  0.000000D+00  0.000000D+00  0.594245D-01  0.000000D+00
     27  0.000000D+00  0.000000D+00  0.000000D+00 -0.537173D+00  0.000000D+00
     28 -0.458446D+00  0.000000D+00  0.000000D+00  0.000000D+00  0.000000D+00
     29  0.000000D+00 -0.301063D+00 -0.508587D+00  0.000000D+00  0.000000D+00
     30  0.490792D+00  0.000000D+00  0.000000D+00  0.000000D+00  0.000000D+00
     31  0.000000D+00  0.450849D-01  0.761622D-01  0.000000D+00  0.000000D+00
     32  0.000000D+00  0.000000D+00  0.000000D+00  0.000000D+00 -0.101869D+00
     33  0.000000D+00  0.000000D+00  0.000000D+00  0.000000D+00 -0.482363D-01
     34  0.000000D+00  0.338750D+00 -0.267204D+00  0.000000D+00  0.000000D+00
     35  0.000000D+00 -0.267204D+00 -0.338750D+00  0.000000D+00  0.000000D+00
     36 -0.265797D+00  0.000000D+00  0.000000D+00  0.000000D+00  0.000000D+00
     37  0.202492D+00  0.000000D+00  0.000000D+00  0.000000D+00  0.000000D+00
     38  0.000000D+00  0.000000D+00  0.000000D+00  0.000000D+00 -0.721156D-01
     39  0.000000D+00  0.000000D+00  0.000000D+00  0.000000D+00  0.710569D-01
     40  0.000000D+00  0.000000D+00  0.000000D+00  0.176698D-02  0.000000D+00
     41  0.000000D+00  0.000000D+00  0.000000D+00 -0.391669D-01  0.000000D+00
     42  0.000000D+00  0.000000D+00  0.000000D+00 -0.238996D+00  0.000000D+00
     43  0.000000D+00  0.000000D+00  0.000000D+00  0.123787D+00  0.000000D+00
     44  0.000000D+00  0.912550D-01  0.154157D+00  0.000000D+00  0.000000D+00
     45 -0.113780D+00  0.000000D+00  0.000000D+00  0.000000D+00  0.000000D+00
     46  0.191737D+00  0.000000D+00  0.000000D+00  0.000000D+00  0.000000D+00
               26            27            28            29            30 
     26  0.000000D+00
     27  0.000000D+00  0.000000D+00
     28  0.683809D-02 -0.618136D-01  0.000000D+00
     29  0.000000D+00  0.000000D+00  0.000000D+00  0.000000D+00
     30 -0.367550D-01  0.332250D+00  0.000000D+00  0.000000D+00  0.000000D+00
     31  0.000000D+00  0.000000D+00  0.000000D+00  0.000000D+00  0.000000D+00
     32  0.000000D+00  0.000000D+00  0.000000D+00  0.129467D-01  0.000000D+00
     33  0.000000D+00  0.000000D+00  0.000000D+00  0.613040D-02  0.000000D+00
     34  0.000000D+00  0.000000D+00  0.000000D+00  0.000000D+00  0.000000D+00
     35  0.000000D+00  0.000000D+00  0.000000D+00  0.000000D+00  0.000000D+00
     36  0.313696D+00 -0.140793D+00  0.000000D+00  0.000000D+00  0.000000D+00
     37  0.140793D+00  0.313696D+00  0.000000D+00  0.000000D+00  0.000000D+00
     38  0.000000D+00  0.000000D+00  0.000000D+00 -0.297855D+00  0.000000D+00
     39  0.000000D+00  0.000000D+00  0.000000D+00  0.293482D+00  0.000000D+00
     40  0.000000D+00  0.000000D+00 -0.225843D-01  0.000000D+00 -0.609361D-02
     41  0.000000D+00  0.000000D+00  0.500605D+00  0.000000D+00  0.135071D+00
     42  0.000000D+00  0.000000D+00 -0.177780D+00  0.000000D+00  0.297486D+00
     43  0.000000D+00  0.000000D+00  0.920801D-01  0.000000D+00 -0.154081D+00
     44  0.000000D+00  0.000000D+00  0.000000D+00  0.000000D+00  0.000000D+00
     45 -0.221398D-01  0.200135D+00  0.000000D+00  0.000000D+00  0.000000D+00
     46  0.245955D-01 -0.222334D+00  0.000000D+00  0.000000D+00  0.000000D+00
               31            32            33            34            35 
     31  0.000000D+00
     32  0.312745D-01  0.000000D+00
     33  0.148088D-01  0.000000D+00  0.000000D+00
     34  0.000000D+00  0.264844D-02 -0.830080D-02  0.000000D+00
     35  0.000000D+00 -0.830080D-02 -0.264844D-02  0.000000D+00  0.000000D+00
     36  0.000000D+00  0.000000D+00  0.000000D+00  0.000000D+00  0.000000D+00
     37  0.000000D+00  0.000000D+00  0.000000D+00  0.000000D+00  0.000000D+00
     38 -0.882811D-01  0.000000D+00  0.000000D+00 -0.108550D+00  0.144396D+00
     39  0.869850D-01  0.000000D+00  0.000000D+00 -0.144396D+00 -0.108550D+00
     40  0.000000D+00  0.000000D+00  0.000000D+00  0.000000D+00  0.000000D+00
     41  0.000000D+00  0.000000D+00  0.000000D+00  0.000000D+00  0.000000D+00
     42  0.000000D+00  0.000000D+00  0.000000D+00  0.000000D+00  0.000000D+00
     43  0.000000D+00  0.000000D+00  0.000000D+00  0.000000D+00  0.000000D+00
     44  0.000000D+00 -0.136051D+00 -0.644219D-01  0.000000D+00  0.000000D+00
     45  0.000000D+00  0.000000D+00  0.000000D+00  0.000000D+00  0.000000D+00
     46  0.000000D+00  0.000000D+00  0.000000D+00  0.000000D+00  0.000000D+00
               36            37            38            39            40 
     36  0.000000D+00
     37  0.000000D+00  0.000000D+00
     38  0.000000D+00  0.000000D+00  0.000000D+00
     39  0.000000D+00  0.000000D+00  0.000000D+00  0.000000D+00
     40  0.580184D-01  0.307205D-01  0.000000D+00  0.000000D+00  0.000000D+00
     41 -0.307205D-01  0.580184D-01  0.000000D+00  0.000000D+00  0.000000D+00
     42  0.856990D-02 -0.158116D+00  0.000000D+00  0.000000D+00  0.000000D+00
     43 -0.158116D+00 -0.856990D-02  0.000000D+00  0.000000D+00  0.000000D+00
     44  0.000000D+00  0.000000D+00 -0.347327D-01  0.342228D-01  0.000000D+00
     45  0.000000D+00  0.000000D+00  0.000000D+00  0.000000D+00  0.341339D-02
     46  0.000000D+00  0.000000D+00  0.000000D+00  0.000000D+00  0.870100D-03
               41            42            43            44            45 
     41  0.000000D+00
     42  0.000000D+00  0.000000D+00
     43  0.000000D+00  0.000000D+00  0.000000D+00
     44  0.000000D+00  0.000000D+00  0.000000D+00  0.000000D+00
     45 -0.756614D-01 -0.126201D+00  0.653652D-01  0.000000D+00  0.000000D+00
     46 -0.192867D-01 -0.161029D+00  0.834042D-01  0.000000D+00  0.000000D+00
               46 
     46  0.000000D+00
 CI dipole matrix                   2
                1             2             3             4             5 
      1  0.000000D+00
      2  0.000000D+00  0.000000D+00
      3  0.000000D+00  0.000000D+00  0.000000D+00
      4  0.000000D+00  0.000000D+00  0.000000D+00  0.000000D+00
      5  0.464220D+00  0.000000D+00  0.456953D+00  0.000000D+00  0.000000D+00
      6 -0.137376D+01  0.000000D+00 -0.135226D+01  0.000000D+00  0.000000D+00
      7  0.000000D+00  0.000000D+00  0.000000D+00  0.000000D+00 -0.110128D+00
      8  0.000000D+00 -0.146845D+01  0.000000D+00 -0.474564D+00  0.000000D+00
      9  0.000000D+00 -0.473782D+00  0.000000D+00 -0.153114D+00  0.000000D+00
     10  0.000000D+00  0.000000D+00  0.000000D+00  0.000000D+00  0.000000D+00
     11  0.000000D+00  0.000000D+00  0.000000D+00  0.000000D+00  0.383116D+00
     12  0.000000D+00  0.000000D+00  0.000000D+00  0.000000D+00  0.000000D+00
     13  0.000000D+00  0.000000D+00  0.000000D+00  0.000000D+00 -0.116760D+01
     14  0.000000D+00  0.000000D+00  0.000000D+00  0.000000D+00  0.682809D-01
     15  0.115010D+00  0.000000D+00 -0.250918D+00  0.000000D+00  0.000000D+00
     16  0.388800D+00  0.000000D+00 -0.848247D+00  0.000000D+00  0.000000D+00
     17  0.000000D+00  0.000000D+00  0.000000D+00  0.000000D+00 -0.158208D-01
     18  0.000000D+00  0.000000D+00  0.000000D+00  0.000000D+00  0.000000D+00
     19  0.000000D+00  0.000000D+00  0.000000D+00  0.000000D+00  0.000000D+00
     20  0.000000D+00 -0.797932D-01  0.000000D+00 -0.928479D+00  0.000000D+00
     21  0.000000D+00  0.325869D-01  0.000000D+00  0.379184D+00  0.000000D+00
     22  0.265876D+00  0.000000D+00 -0.582868D+00  0.000000D+00  0.000000D+00
     23 -0.157388D+00  0.000000D+00  0.345034D+00  0.000000D+00  0.000000D+00
     24  0.000000D+00  0.000000D+00  0.000000D+00  0.000000D+00  0.000000D+00
     25  0.000000D+00  0.000000D+00  0.000000D+00  0.000000D+00  0.154848D-01
     26  0.000000D+00  0.697894D-01  0.000000D+00  0.237578D-01  0.000000D+00
     27  0.000000D+00  0.772041D-02  0.000000D+00  0.262819D-02  0.000000D+00
     28  0.000000D+00  0.000000D+00  0.000000D+00  0.000000D+00  0.000000D+00
     29  0.000000D+00  0.000000D+00  0.000000D+00  0.000000D+00 -0.833879D-01
     30  0.000000D+00  0.000000D+00  0.000000D+00  0.000000D+00  0.000000D+00
     31  0.000000D+00  0.000000D+00  0.000000D+00  0.000000D+00  0.269438D-01
     32 -0.114262D-02  0.000000D+00 -0.407233D-01  0.000000D+00  0.000000D+00
     33  0.241307D-02  0.000000D+00  0.860027D-01  0.000000D+00  0.000000D+00
     34  0.000000D+00  0.000000D+00  0.000000D+00  0.000000D+00  0.239957D+00
     35  0.000000D+00  0.000000D+00  0.000000D+00  0.000000D+00  0.467675D-01
     36  0.000000D+00  0.000000D+00  0.000000D+00  0.000000D+00  0.000000D+00
     37  0.000000D+00  0.000000D+00  0.000000D+00  0.000000D+00  0.000000D+00
     38 -0.463728D-01  0.000000D+00 -0.228865D+00  0.000000D+00  0.000000D+00
     39 -0.470637D-01  0.000000D+00 -0.232275D+00  0.000000D+00  0.000000D+00
     40  0.000000D+00 -0.119216D-01  0.000000D+00 -0.921261D-01  0.000000D+00
     41  0.000000D+00 -0.537831D-03  0.000000D+00 -0.415618D-02  0.000000D+00
     42  0.000000D+00 -0.477906D-01  0.000000D+00 -0.845560D-01  0.000000D+00
     43  0.000000D+00 -0.922695D-01  0.000000D+00 -0.163253D+00  0.000000D+00
     44  0.000000D+00  0.000000D+00  0.000000D+00  0.000000D+00 -0.110301D-01
     45  0.000000D+00  0.000000D+00  0.000000D+00  0.000000D+00  0.000000D+00
     46  0.000000D+00  0.000000D+00  0.000000D+00  0.000000D+00  0.000000D+00
                6             7             8             9            10 
      6  0.000000D+00
      7  0.325902D+00  0.000000D+00
      8  0.000000D+00  0.000000D+00  0.000000D+00
      9  0.000000D+00  0.000000D+00  0.000000D+00  0.000000D+00
     10  0.000000D+00  0.000000D+00 -0.866039D-01 -0.279420D-01  0.000000D+00
     11 -0.113375D+01  0.000000D+00  0.000000D+00  0.000000D+00  0.000000D+00
     12  0.000000D+00  0.000000D+00 -0.124114D+01 -0.400442D+00  0.000000D+00
     13  0.682809D-01  0.000000D+00  0.000000D+00  0.000000D+00  0.000000D+00
     14  0.116760D+01  0.000000D+00  0.000000D+00  0.000000D+00  0.000000D+00
     15  0.000000D+00 -0.187738D+00  0.000000D+00  0.000000D+00  0.000000D+00
     16  0.000000D+00 -0.634661D+00  0.000000D+00  0.000000D+00  0.000000D+00
     17  0.468183D-01  0.000000D+00  0.000000D+00  0.000000D+00  0.000000D+00
     18  0.000000D+00  0.000000D+00 -0.306398D+00  0.103745D+01  0.000000D+00
     19  0.000000D+00  0.000000D+00  0.103745D+01  0.306398D+00  0.000000D+00
     20  0.000000D+00  0.000000D+00  0.000000D+00  0.000000D+00 -0.186362D+00
     21  0.000000D+00  0.000000D+00  0.000000D+00  0.000000D+00  0.761089D-01
     22  0.000000D+00  0.769703D+00  0.000000D+00  0.000000D+00  0.000000D+00
     23  0.000000D+00 -0.455633D+00  0.000000D+00  0.000000D+00  0.000000D+00
     24  0.000000D+00  0.000000D+00  0.354001D+00  0.114215D+00  0.000000D+00
     25 -0.458241D-01  0.000000D+00  0.000000D+00  0.000000D+00  0.000000D+00
     26  0.000000D+00  0.000000D+00  0.000000D+00  0.000000D+00  0.751924D+00
     27  0.000000D+00  0.000000D+00  0.000000D+00  0.000000D+00  0.831811D-01
     28  0.000000D+00  0.000000D+00 -0.236315D+00 -0.762450D-01  0.000000D+00
     29  0.246769D+00  0.000000D+00  0.000000D+00  0.000000D+00  0.000000D+00
     30  0.000000D+00  0.000000D+00  0.295318D+00  0.952816D-01  0.000000D+00
     31 -0.797347D-01  0.000000D+00  0.000000D+00  0.000000D+00  0.000000D+00
     32  0.000000D+00 -0.119056D+00  0.000000D+00  0.000000D+00  0.000000D+00
     33  0.000000D+00  0.251432D+00  0.000000D+00  0.000000D+00  0.000000D+00
     34  0.467675D-01  0.000000D+00  0.000000D+00  0.000000D+00  0.000000D+00
     35 -0.239957D+00  0.000000D+00  0.000000D+00  0.000000D+00  0.000000D+00
     36  0.000000D+00  0.000000D+00  0.190818D+00 -0.169619D+00  0.000000D+00
     37  0.000000D+00  0.000000D+00 -0.169619D+00 -0.190818D+00  0.000000D+00
     38  0.000000D+00  0.890223D-01  0.000000D+00  0.000000D+00  0.000000D+00
     39  0.000000D+00  0.903488D-01  0.000000D+00  0.000000D+00  0.000000D+00
     40  0.000000D+00  0.000000D+00  0.000000D+00  0.000000D+00 -0.191974D+00
     41  0.000000D+00  0.000000D+00  0.000000D+00  0.000000D+00 -0.866071D-02
     42  0.000000D+00  0.000000D+00  0.000000D+00  0.000000D+00  0.487091D-02
     43  0.000000D+00  0.000000D+00  0.000000D+00  0.000000D+00  0.940428D-02
     44  0.326414D-01  0.000000D+00  0.000000D+00  0.000000D+00  0.000000D+00
     45  0.000000D+00  0.000000D+00 -0.600378D-01 -0.193707D-01  0.000000D+00
     46  0.000000D+00  0.000000D+00  0.430608D-01  0.138932D-01  0.000000D+00
               11            12            13            14            15 
     11  0.000000D+00
     12  0.000000D+00  0.000000D+00
     13  0.000000D+00  0.000000D+00  0.000000D+00
     14  0.000000D+00  0.000000D+00  0.000000D+00  0.000000D+00
     15 -0.166797D-01  0.000000D+00  0.932163D-01 -0.741384D-01  0.000000D+00
     16 -0.563871D-01  0.000000D+00 -0.741384D-01 -0.932163D-01  0.000000D+00
     17  0.000000D+00  0.000000D+00  0.000000D+00  0.000000D+00  0.222077D-01
     18  0.000000D+00  0.000000D+00  0.000000D+00  0.000000D+00  0.000000D+00
     19  0.000000D+00  0.000000D+00  0.000000D+00  0.000000D+00  0.000000D+00
     20  0.000000D+00 -0.458442D+00  0.000000D+00  0.000000D+00  0.000000D+00
     21  0.000000D+00  0.187224D+00  0.000000D+00  0.000000D+00  0.000000D+00
     22 -0.380973D+00  0.000000D+00  0.568980D-01  0.434362D-01  0.000000D+00
     23  0.225520D+00  0.000000D+00  0.434362D-01 -0.568980D-01  0.000000D+00
     24  0.000000D+00  0.000000D+00  0.000000D+00  0.000000D+00  0.000000D+00
     25  0.000000D+00  0.000000D+00  0.000000D+00  0.000000D+00 -0.393238D-01
     26  0.000000D+00 -0.113306D+00  0.000000D+00  0.000000D+00  0.000000D+00
     27  0.000000D+00 -0.125344D-01  0.000000D+00  0.000000D+00  0.000000D+00
     28  0.000000D+00  0.000000D+00  0.000000D+00  0.000000D+00  0.000000D+00
     29  0.000000D+00  0.000000D+00  0.000000D+00  0.000000D+00  0.105910D+00
     30  0.000000D+00  0.000000D+00  0.000000D+00  0.000000D+00  0.000000D+00
     31  0.000000D+00  0.000000D+00  0.000000D+00  0.000000D+00 -0.842708D-01
     32  0.609333D-01  0.000000D+00 -0.673344D-01 -0.390630D-02  0.000000D+00
     33 -0.128684D+00  0.000000D+00 -0.390630D-02  0.673344D-01  0.000000D+00
     34  0.000000D+00  0.000000D+00  0.000000D+00  0.000000D+00  0.259896D+00
     35  0.000000D+00  0.000000D+00  0.000000D+00  0.000000D+00 -0.116372D+00
     36  0.000000D+00  0.000000D+00  0.000000D+00  0.000000D+00  0.000000D+00
     37  0.000000D+00  0.000000D+00  0.000000D+00  0.000000D+00  0.000000D+00
     38  0.187968D+00  0.000000D+00 -0.150666D+00 -0.625877D-01  0.000000D+00
     39  0.190769D+00  0.000000D+00  0.625877D-01 -0.150666D+00  0.000000D+00
     40  0.000000D+00 -0.807325D-01  0.000000D+00  0.000000D+00  0.000000D+00
     41  0.000000D+00 -0.364217D-02  0.000000D+00  0.000000D+00  0.000000D+00
     42  0.000000D+00  0.104382D+00  0.000000D+00  0.000000D+00  0.000000D+00
     43  0.000000D+00  0.201531D+00  0.000000D+00  0.000000D+00  0.000000D+00
     44  0.000000D+00  0.000000D+00  0.000000D+00  0.000000D+00  0.625057D-01
     45  0.000000D+00  0.000000D+00  0.000000D+00  0.000000D+00  0.000000D+00
     46  0.000000D+00  0.000000D+00  0.000000D+00  0.000000D+00  0.000000D+00
               16            17            18            19            20 
     16  0.000000D+00
     17  0.750747D-01  0.000000D+00
     18  0.000000D+00  0.000000D+00  0.000000D+00
     19  0.000000D+00  0.000000D+00  0.000000D+00  0.000000D+00
     20  0.000000D+00  0.000000D+00  0.508969D-01 -0.134081D+00  0.000000D+00
     21  0.000000D+00  0.000000D+00  0.134081D+00  0.508969D-01  0.000000D+00
     22  0.000000D+00  0.400657D-01  0.000000D+00  0.000000D+00  0.000000D+00
     23  0.000000D+00 -0.237173D-01  0.000000D+00  0.000000D+00  0.000000D+00
     24  0.000000D+00  0.000000D+00  0.000000D+00  0.000000D+00  0.848896D-01
     25 -0.132937D+00  0.000000D+00  0.000000D+00  0.000000D+00  0.000000D+00
     26  0.000000D+00  0.000000D+00 -0.234517D-01 -0.172530D+00  0.000000D+00
     27  0.000000D+00  0.000000D+00  0.172530D+00 -0.234517D-01  0.000000D+00
     28  0.000000D+00  0.000000D+00  0.000000D+00  0.000000D+00 -0.458446D+00
     29  0.358037D+00  0.000000D+00  0.000000D+00  0.000000D+00  0.000000D+00
     30  0.000000D+00  0.000000D+00  0.000000D+00  0.000000D+00  0.490792D+00
     31 -0.284884D+00  0.000000D+00  0.000000D+00  0.000000D+00  0.000000D+00
     32  0.000000D+00 -0.212632D+00  0.000000D+00  0.000000D+00  0.000000D+00
     33  0.000000D+00  0.449053D+00  0.000000D+00  0.000000D+00  0.000000D+00
     34 -0.116372D+00  0.000000D+00  0.000000D+00  0.000000D+00  0.000000D+00
     35 -0.259896D+00  0.000000D+00  0.000000D+00  0.000000D+00  0.000000D+00
     36  0.000000D+00  0.000000D+00  0.000000D+00  0.000000D+00  0.265797D+00
     37  0.000000D+00  0.000000D+00  0.000000D+00  0.000000D+00 -0.202492D+00
     38  0.000000D+00  0.540864D-01  0.000000D+00  0.000000D+00  0.000000D+00
     39  0.000000D+00  0.548923D-01  0.000000D+00  0.000000D+00  0.000000D+00
     40  0.000000D+00  0.000000D+00  0.376443D-02  0.536842D-01  0.000000D+00
     41  0.000000D+00  0.000000D+00 -0.536842D-01  0.376443D-02  0.000000D+00
     42  0.000000D+00  0.000000D+00  0.216427D+00 -0.119030D+00  0.000000D+00
     43  0.000000D+00  0.000000D+00 -0.119030D+00 -0.216427D+00  0.000000D+00
     44  0.211305D+00  0.000000D+00  0.000000D+00  0.000000D+00  0.000000D+00
     45  0.000000D+00  0.000000D+00  0.000000D+00  0.000000D+00 -0.113780D+00
     46  0.000000D+00  0.000000D+00  0.000000D+00  0.000000D+00  0.191737D+00
               21            22            23            24            25 
     21  0.000000D+00
     22  0.000000D+00  0.000000D+00
     23  0.000000D+00  0.000000D+00  0.000000D+00
     24 -0.346682D-01  0.000000D+00  0.000000D+00  0.000000D+00
     25  0.000000D+00  0.426765D+00 -0.252627D+00  0.000000D+00  0.000000D+00
     26  0.000000D+00  0.000000D+00  0.000000D+00 -0.537173D+00  0.000000D+00
     27  0.000000D+00  0.000000D+00  0.000000D+00 -0.594245D-01  0.000000D+00
     28  0.187226D+00  0.000000D+00  0.000000D+00  0.000000D+00  0.000000D+00
     29  0.000000D+00  0.508587D+00 -0.301063D+00  0.000000D+00  0.000000D+00
     30 -0.200435D+00  0.000000D+00  0.000000D+00  0.000000D+00  0.000000D+00
     31  0.000000D+00 -0.761622D-01  0.450849D-01  0.000000D+00  0.000000D+00
     32  0.000000D+00  0.000000D+00  0.000000D+00  0.000000D+00  0.482363D-01
     33  0.000000D+00  0.000000D+00  0.000000D+00  0.000000D+00 -0.101869D+00
     34  0.000000D+00 -0.267204D+00 -0.338750D+00  0.000000D+00  0.000000D+00
     35  0.000000D+00 -0.338750D+00  0.267204D+00  0.000000D+00  0.000000D+00
     36  0.202492D+00  0.000000D+00  0.000000D+00  0.000000D+00  0.000000D+00
     37  0.265797D+00  0.000000D+00  0.000000D+00  0.000000D+00  0.000000D+00
     38  0.000000D+00  0.000000D+00  0.000000D+00  0.000000D+00  0.710569D-01
     39  0.000000D+00  0.000000D+00  0.000000D+00  0.000000D+00  0.721156D-01
     40  0.000000D+00  0.000000D+00  0.000000D+00 -0.391669D-01  0.000000D+00
     41  0.000000D+00  0.000000D+00  0.000000D+00 -0.176698D-02  0.000000D+00
     42  0.000000D+00  0.000000D+00  0.000000D+00 -0.123787D+00  0.000000D+00
     43  0.000000D+00  0.000000D+00  0.000000D+00 -0.238996D+00  0.000000D+00
     44  0.000000D+00 -0.154157D+00  0.912550D-01  0.000000D+00  0.000000D+00
     45  0.464668D-01  0.000000D+00  0.000000D+00  0.000000D+00  0.000000D+00
     46 -0.783037D-01  0.000000D+00  0.000000D+00  0.000000D+00  0.000000D+00
               26            27            28            29            30 
     26  0.000000D+00
     27  0.000000D+00  0.000000D+00
     28 -0.618136D-01 -0.683809D-02  0.000000D+00
     29  0.000000D+00  0.000000D+00  0.000000D+00  0.000000D+00
     30  0.332250D+00  0.367550D-01  0.000000D+00  0.000000D+00  0.000000D+00
     31  0.000000D+00  0.000000D+00  0.000000D+00  0.000000D+00  0.000000D+00
     32  0.000000D+00  0.000000D+00  0.000000D+00 -0.613040D-02  0.000000D+00
     33  0.000000D+00  0.000000D+00  0.000000D+00  0.129467D-01  0.000000D+00
     34  0.000000D+00  0.000000D+00  0.000000D+00  0.000000D+00  0.000000D+00
     35  0.000000D+00  0.000000D+00  0.000000D+00  0.000000D+00  0.000000D+00
     36  0.140793D+00  0.313696D+00  0.000000D+00  0.000000D+00  0.000000D+00
     37 -0.313696D+00  0.140793D+00  0.000000D+00  0.000000D+00  0.000000D+00
     38  0.000000D+00  0.000000D+00  0.000000D+00  0.293482D+00  0.000000D+00
     39  0.000000D+00  0.000000D+00  0.000000D+00  0.297855D+00  0.000000D+00
     40  0.000000D+00  0.000000D+00  0.500605D+00  0.000000D+00  0.135071D+00
     41  0.000000D+00  0.000000D+00  0.225843D-01  0.000000D+00  0.609361D-02
     42  0.000000D+00  0.000000D+00 -0.920801D-01  0.000000D+00  0.154081D+00
     43  0.000000D+00  0.000000D+00 -0.177780D+00  0.000000D+00  0.297486D+00
     44  0.000000D+00  0.000000D+00  0.000000D+00  0.000000D+00  0.000000D+00
     45  0.200135D+00  0.221398D-01  0.000000D+00  0.000000D+00  0.000000D+00
     46 -0.222334D+00 -0.245955D-01  0.000000D+00  0.000000D+00  0.000000D+00
               31            32            33            34            35 
     31  0.000000D+00
     32 -0.148088D-01  0.000000D+00
     33  0.312745D-01  0.000000D+00  0.000000D+00
     34  0.000000D+00 -0.830080D-02 -0.264844D-02  0.000000D+00
     35  0.000000D+00 -0.264844D-02  0.830080D-02  0.000000D+00  0.000000D+00
     36  0.000000D+00  0.000000D+00  0.000000D+00  0.000000D+00  0.000000D+00
     37  0.000000D+00  0.000000D+00  0.000000D+00  0.000000D+00  0.000000D+00
     38  0.869850D-01  0.000000D+00  0.000000D+00  0.144396D+00  0.108550D+00
     39  0.882811D-01  0.000000D+00  0.000000D+00 -0.108550D+00  0.144396D+00
     40  0.000000D+00  0.000000D+00  0.000000D+00  0.000000D+00  0.000000D+00
     41  0.000000D+00  0.000000D+00  0.000000D+00  0.000000D+00  0.000000D+00
     42  0.000000D+00  0.000000D+00  0.000000D+00  0.000000D+00  0.000000D+00
     43  0.000000D+00  0.000000D+00  0.000000D+00  0.000000D+00  0.000000D+00
     44  0.000000D+00  0.644219D-01 -0.136051D+00  0.000000D+00  0.000000D+00
     45  0.000000D+00  0.000000D+00  0.000000D+00  0.000000D+00  0.000000D+00
     46  0.000000D+00  0.000000D+00  0.000000D+00  0.000000D+00  0.000000D+00
               36            37            38            39            40 
     36  0.000000D+00
     37  0.000000D+00  0.000000D+00
     38  0.000000D+00  0.000000D+00  0.000000D+00
     39  0.000000D+00  0.000000D+00  0.000000D+00  0.000000D+00
     40  0.307205D-01 -0.580184D-01  0.000000D+00  0.000000D+00  0.000000D+00
     41  0.580184D-01  0.307205D-01  0.000000D+00  0.000000D+00  0.000000D+00
     42 -0.158116D+00 -0.856990D-02  0.000000D+00  0.000000D+00  0.000000D+00
     43 -0.856990D-02  0.158116D+00  0.000000D+00  0.000000D+00  0.000000D+00
     44  0.000000D+00  0.000000D+00  0.342228D-01  0.347327D-01  0.000000D+00
     45  0.000000D+00  0.000000D+00  0.000000D+00  0.000000D+00 -0.756614D-01
     46  0.000000D+00  0.000000D+00  0.000000D+00  0.000000D+00 -0.192867D-01
               41            42            43            44            45 
     41  0.000000D+00
     42  0.000000D+00  0.000000D+00
     43  0.000000D+00  0.000000D+00  0.000000D+00
     44  0.000000D+00  0.000000D+00  0.000000D+00  0.000000D+00
     45 -0.341339D-02 -0.653652D-01 -0.126201D+00  0.000000D+00  0.000000D+00
     46 -0.870100D-03 -0.834042D-01 -0.161029D+00  0.000000D+00  0.000000D+00
               46 
     46  0.000000D+00
 CI dipole matrix                   3
                1             2             3             4             5 
      1  0.000000D+00
      2 -0.203233D+01  0.000000D+00
      3  0.000000D+00 -0.218053D+01  0.000000D+00
      4  0.807884D+00  0.000000D+00 -0.324298D+01  0.000000D+00
      5  0.000000D+00  0.000000D+00  0.000000D+00  0.000000D+00  0.000000D+00
      6  0.000000D+00  0.000000D+00  0.000000D+00  0.000000D+00  0.000000D+00
      7  0.000000D+00 -0.190895D+01  0.000000D+00  0.437590D+00  0.000000D+00
      8  0.000000D+00  0.000000D+00  0.000000D+00  0.000000D+00  0.266069D-01
      9  0.000000D+00  0.000000D+00  0.000000D+00  0.000000D+00  0.193147D+01
     10 -0.151168D+00  0.000000D+00  0.618688D-03  0.000000D+00  0.000000D+00
     11  0.000000D+00  0.297683D+00  0.000000D+00  0.147457D+01  0.000000D+00
     12  0.167404D+00  0.000000D+00  0.114965D+00  0.000000D+00  0.000000D+00
     13  0.000000D+00  0.000000D+00  0.000000D+00  0.000000D+00  0.000000D+00
     14  0.000000D+00  0.000000D+00  0.000000D+00  0.000000D+00  0.000000D+00
     15  0.000000D+00  0.000000D+00  0.000000D+00  0.000000D+00  0.000000D+00
     16  0.000000D+00  0.000000D+00  0.000000D+00  0.000000D+00  0.000000D+00
     17  0.000000D+00 -0.644811D-01  0.000000D+00 -0.100094D+01  0.000000D+00
     18  0.000000D+00  0.000000D+00  0.000000D+00  0.000000D+00  0.000000D+00
     19  0.000000D+00  0.000000D+00  0.000000D+00  0.000000D+00  0.000000D+00
     20  0.000000D+00  0.000000D+00  0.000000D+00  0.000000D+00  0.468655D-02
     21  0.000000D+00  0.000000D+00  0.000000D+00  0.000000D+00  0.756783D-01
     22  0.000000D+00  0.000000D+00  0.000000D+00  0.000000D+00  0.000000D+00
     23  0.000000D+00  0.000000D+00  0.000000D+00  0.000000D+00  0.000000D+00
     24 -0.156201D+00  0.000000D+00  0.859975D-01  0.000000D+00  0.000000D+00
     25  0.000000D+00 -0.165276D+00  0.000000D+00 -0.404497D+00  0.000000D+00
     26  0.000000D+00  0.000000D+00  0.000000D+00  0.000000D+00  0.740619D-01
     27  0.000000D+00  0.000000D+00  0.000000D+00  0.000000D+00 -0.158944D+00
     28  0.105574D+00  0.000000D+00 -0.118287D-01  0.000000D+00  0.000000D+00
     29  0.000000D+00 -0.140847D+00  0.000000D+00 -0.399453D+00  0.000000D+00
     30  0.451980D-01  0.000000D+00 -0.138397D-01  0.000000D+00  0.000000D+00
     31  0.000000D+00  0.268640D-01  0.000000D+00 -0.269217D-02  0.000000D+00
     32  0.000000D+00  0.000000D+00  0.000000D+00  0.000000D+00  0.000000D+00
     33  0.000000D+00  0.000000D+00  0.000000D+00  0.000000D+00  0.000000D+00
     34  0.000000D+00  0.000000D+00  0.000000D+00  0.000000D+00  0.000000D+00
     35  0.000000D+00  0.000000D+00  0.000000D+00  0.000000D+00  0.000000D+00
     36  0.000000D+00  0.000000D+00  0.000000D+00  0.000000D+00  0.000000D+00
     37  0.000000D+00  0.000000D+00  0.000000D+00  0.000000D+00  0.000000D+00
     38  0.000000D+00  0.000000D+00  0.000000D+00  0.000000D+00  0.000000D+00
     39  0.000000D+00  0.000000D+00  0.000000D+00  0.000000D+00  0.000000D+00
     40  0.000000D+00  0.000000D+00  0.000000D+00  0.000000D+00 -0.148512D-01
     41  0.000000D+00  0.000000D+00  0.000000D+00  0.000000D+00  0.381816D-01
     42  0.000000D+00  0.000000D+00  0.000000D+00  0.000000D+00 -0.208962D-01
     43  0.000000D+00  0.000000D+00  0.000000D+00  0.000000D+00  0.216786D-01
     44  0.000000D+00 -0.126665D+00  0.000000D+00 -0.181210D+00  0.000000D+00
     45 -0.499587D-01  0.000000D+00  0.179758D-01  0.000000D+00  0.000000D+00
     46  0.118513D-01  0.000000D+00 -0.438830D-02  0.000000D+00  0.000000D+00
                6             7             8             9            10 
      6  0.000000D+00
      7  0.000000D+00  0.000000D+00
      8 -0.193147D+01  0.000000D+00  0.000000D+00
      9  0.266069D-01  0.000000D+00  0.000000D+00  0.000000D+00
     10  0.000000D+00  0.292400D+01  0.000000D+00  0.000000D+00  0.000000D+00
     11  0.000000D+00  0.000000D+00  0.000000D+00  0.000000D+00  0.923829D+00
     12  0.000000D+00  0.103125D+00  0.000000D+00  0.000000D+00  0.000000D+00
     13  0.000000D+00  0.000000D+00  0.000000D+00  0.000000D+00  0.000000D+00
     14  0.000000D+00  0.000000D+00  0.000000D+00  0.000000D+00  0.000000D+00
     15  0.000000D+00  0.000000D+00 -0.736834D+00  0.107771D+01  0.000000D+00
     16  0.000000D+00  0.000000D+00 -0.107771D+01 -0.736834D+00  0.000000D+00
     17  0.000000D+00  0.000000D+00  0.000000D+00  0.000000D+00  0.140572D+01
     18  0.000000D+00  0.000000D+00  0.000000D+00  0.000000D+00  0.000000D+00
     19  0.000000D+00  0.000000D+00  0.000000D+00  0.000000D+00  0.000000D+00
     20  0.756783D-01  0.000000D+00  0.000000D+00  0.000000D+00  0.000000D+00
     21 -0.468655D-02  0.000000D+00  0.000000D+00  0.000000D+00  0.000000D+00
     22  0.000000D+00  0.000000D+00  0.413939D+00  0.467966D+00  0.000000D+00
     23  0.000000D+00  0.000000D+00 -0.467966D+00  0.413939D+00  0.000000D+00
     24  0.000000D+00 -0.263128D+00  0.000000D+00  0.000000D+00  0.000000D+00
     25  0.000000D+00  0.000000D+00  0.000000D+00  0.000000D+00 -0.937326D+00
     26 -0.158944D+00  0.000000D+00  0.000000D+00  0.000000D+00  0.000000D+00
     27 -0.740619D-01  0.000000D+00  0.000000D+00  0.000000D+00  0.000000D+00
     28  0.000000D+00 -0.154454D+00  0.000000D+00  0.000000D+00  0.000000D+00
     29  0.000000D+00  0.000000D+00  0.000000D+00  0.000000D+00 -0.463334D+00
     30  0.000000D+00  0.267989D-01  0.000000D+00  0.000000D+00  0.000000D+00
     31  0.000000D+00  0.000000D+00  0.000000D+00  0.000000D+00 -0.349430D+00
     32  0.000000D+00  0.000000D+00 -0.509112D-01 -0.389003D+00  0.000000D+00
     33  0.000000D+00  0.000000D+00  0.389003D+00 -0.509112D-01  0.000000D+00
     34  0.000000D+00  0.000000D+00  0.000000D+00  0.000000D+00  0.000000D+00
     35  0.000000D+00  0.000000D+00  0.000000D+00  0.000000D+00  0.000000D+00
     36  0.000000D+00  0.000000D+00  0.000000D+00  0.000000D+00  0.000000D+00
     37  0.000000D+00  0.000000D+00  0.000000D+00  0.000000D+00  0.000000D+00
     38  0.000000D+00  0.000000D+00 -0.309151D-01 -0.614826D-01  0.000000D+00
     39  0.000000D+00  0.000000D+00 -0.614826D-01  0.309151D-01  0.000000D+00
     40  0.381816D-01  0.000000D+00  0.000000D+00  0.000000D+00  0.000000D+00
     41  0.148512D-01  0.000000D+00  0.000000D+00  0.000000D+00  0.000000D+00
     42 -0.216786D-01  0.000000D+00  0.000000D+00  0.000000D+00  0.000000D+00
     43 -0.208962D-01  0.000000D+00  0.000000D+00  0.000000D+00  0.000000D+00
     44  0.000000D+00  0.000000D+00  0.000000D+00  0.000000D+00  0.345828D+00
     45  0.000000D+00 -0.169351D-01  0.000000D+00  0.000000D+00  0.000000D+00
     46  0.000000D+00 -0.342286D-02  0.000000D+00  0.000000D+00  0.000000D+00
               11            12            13            14            15 
     11  0.000000D+00
     12 -0.151580D+01  0.000000D+00
     13  0.000000D+00  0.000000D+00  0.000000D+00
     14  0.000000D+00  0.000000D+00  0.000000D+00  0.000000D+00
     15  0.000000D+00  0.000000D+00  0.000000D+00  0.000000D+00  0.000000D+00
     16  0.000000D+00  0.000000D+00  0.000000D+00  0.000000D+00  0.000000D+00
     17  0.000000D+00  0.352567D-01  0.000000D+00  0.000000D+00  0.000000D+00
     18  0.000000D+00  0.000000D+00 -0.143306D+01  0.538364D+00  0.000000D+00
     19  0.000000D+00  0.000000D+00 -0.538364D+00 -0.143306D+01  0.000000D+00
     20  0.000000D+00  0.000000D+00  0.000000D+00  0.000000D+00 -0.550063D-01
     21  0.000000D+00  0.000000D+00  0.000000D+00  0.000000D+00 -0.686754D-01
     22  0.000000D+00  0.000000D+00  0.000000D+00  0.000000D+00  0.000000D+00
     23  0.000000D+00  0.000000D+00  0.000000D+00  0.000000D+00  0.000000D+00
     24  0.286807D+00  0.000000D+00  0.000000D+00  0.000000D+00  0.000000D+00
     25  0.000000D+00  0.126006D+00  0.000000D+00  0.000000D+00  0.000000D+00
     26  0.000000D+00  0.000000D+00  0.000000D+00  0.000000D+00 -0.240453D+00
     27  0.000000D+00  0.000000D+00  0.000000D+00  0.000000D+00 -0.134095D+01
     28 -0.201924D+00  0.000000D+00  0.000000D+00  0.000000D+00  0.000000D+00
     29  0.000000D+00 -0.332528D-01  0.000000D+00  0.000000D+00  0.000000D+00
     30 -0.238841D-01  0.000000D+00  0.000000D+00  0.000000D+00  0.000000D+00
     31  0.000000D+00 -0.228644D+00  0.000000D+00  0.000000D+00  0.000000D+00
     32  0.000000D+00  0.000000D+00  0.000000D+00  0.000000D+00  0.000000D+00
     33  0.000000D+00  0.000000D+00  0.000000D+00  0.000000D+00  0.000000D+00
     34  0.000000D+00  0.000000D+00  0.000000D+00  0.000000D+00  0.000000D+00
     35  0.000000D+00  0.000000D+00  0.000000D+00  0.000000D+00  0.000000D+00
     36  0.000000D+00  0.000000D+00  0.395953D-01 -0.516053D-01  0.000000D+00
     37  0.000000D+00  0.000000D+00  0.516053D-01  0.395953D-01  0.000000D+00
     38  0.000000D+00  0.000000D+00  0.000000D+00  0.000000D+00  0.000000D+00
     39  0.000000D+00  0.000000D+00  0.000000D+00  0.000000D+00  0.000000D+00
     40  0.000000D+00  0.000000D+00  0.000000D+00  0.000000D+00  0.420751D-01
     41  0.000000D+00  0.000000D+00  0.000000D+00  0.000000D+00  0.170074D+00
     42  0.000000D+00  0.000000D+00  0.000000D+00  0.000000D+00 -0.556340D-01
     43  0.000000D+00  0.000000D+00  0.000000D+00  0.000000D+00  0.107165D-01
     44  0.000000D+00  0.475579D+00  0.000000D+00  0.000000D+00  0.000000D+00
     45  0.350566D-01  0.000000D+00  0.000000D+00  0.000000D+00  0.000000D+00
     46 -0.120080D-01  0.000000D+00  0.000000D+00  0.000000D+00  0.000000D+00
               16            17            18            19            20 
     16  0.000000D+00
     17  0.000000D+00  0.000000D+00
     18  0.000000D+00  0.000000D+00  0.000000D+00
     19  0.000000D+00  0.000000D+00  0.000000D+00  0.000000D+00
     20 -0.686754D-01  0.000000D+00  0.000000D+00  0.000000D+00  0.000000D+00
     21  0.550063D-01  0.000000D+00  0.000000D+00  0.000000D+00  0.000000D+00
     22  0.000000D+00  0.000000D+00  0.000000D+00  0.000000D+00 -0.117218D+01
     23  0.000000D+00  0.000000D+00  0.000000D+00  0.000000D+00  0.154645D+01
     24  0.000000D+00  0.201096D+01  0.000000D+00  0.000000D+00  0.000000D+00
     25  0.000000D+00  0.000000D+00  0.000000D+00  0.000000D+00  0.000000D+00
     26 -0.134095D+01  0.000000D+00  0.000000D+00  0.000000D+00  0.000000D+00
     27  0.240453D+00  0.000000D+00  0.000000D+00  0.000000D+00  0.000000D+00
     28  0.000000D+00 -0.732056D+00  0.000000D+00  0.000000D+00  0.000000D+00
     29  0.000000D+00  0.000000D+00  0.000000D+00  0.000000D+00  0.000000D+00
     30  0.000000D+00  0.174894D+00  0.000000D+00  0.000000D+00  0.000000D+00
     31  0.000000D+00  0.000000D+00  0.000000D+00  0.000000D+00  0.000000D+00
     32  0.000000D+00  0.000000D+00  0.000000D+00  0.000000D+00 -0.190225D-01
     33  0.000000D+00  0.000000D+00  0.000000D+00  0.000000D+00  0.348604D+00
     34  0.000000D+00  0.000000D+00  0.828716D-02  0.902376D-03  0.000000D+00
     35  0.000000D+00  0.000000D+00 -0.902376D-03  0.828716D-02  0.000000D+00
     36  0.000000D+00  0.000000D+00  0.000000D+00  0.000000D+00  0.000000D+00
     37  0.000000D+00  0.000000D+00  0.000000D+00  0.000000D+00  0.000000D+00
     38  0.000000D+00  0.000000D+00  0.000000D+00  0.000000D+00 -0.131552D+00
     39  0.000000D+00  0.000000D+00  0.000000D+00  0.000000D+00 -0.319777D+00
     40  0.170074D+00  0.000000D+00  0.000000D+00  0.000000D+00  0.000000D+00
     41 -0.420751D-01  0.000000D+00  0.000000D+00  0.000000D+00  0.000000D+00
     42 -0.107165D-01  0.000000D+00  0.000000D+00  0.000000D+00  0.000000D+00
     43 -0.556340D-01  0.000000D+00  0.000000D+00  0.000000D+00  0.000000D+00
     44  0.000000D+00  0.000000D+00  0.000000D+00  0.000000D+00  0.000000D+00
     45  0.000000D+00 -0.853277D-01  0.000000D+00  0.000000D+00  0.000000D+00
     46  0.000000D+00 -0.130395D+00  0.000000D+00  0.000000D+00  0.000000D+00
               21            22            23            24            25 
     21  0.000000D+00
     22  0.154645D+01  0.000000D+00
     23  0.117218D+01  0.000000D+00  0.000000D+00
     24  0.000000D+00  0.000000D+00  0.000000D+00  0.000000D+00
     25  0.000000D+00  0.000000D+00  0.000000D+00  0.180629D+01  0.000000D+00
     26  0.000000D+00  0.456767D+00 -0.206345D+00  0.000000D+00  0.000000D+00
     27  0.000000D+00 -0.206345D+00 -0.456767D+00  0.000000D+00  0.000000D+00
     28  0.000000D+00  0.000000D+00  0.000000D+00  0.000000D+00  0.122627D+01
     29  0.000000D+00  0.000000D+00  0.000000D+00 -0.393149D+00  0.000000D+00
     30  0.000000D+00  0.000000D+00  0.000000D+00  0.000000D+00  0.593089D+00
     31  0.000000D+00  0.000000D+00  0.000000D+00 -0.477052D-01  0.000000D+00
     32  0.348604D+00  0.000000D+00  0.000000D+00  0.000000D+00  0.000000D+00
     33  0.190225D-01  0.000000D+00  0.000000D+00  0.000000D+00  0.000000D+00
     34  0.000000D+00  0.000000D+00  0.000000D+00  0.000000D+00  0.000000D+00
     35  0.000000D+00  0.000000D+00  0.000000D+00  0.000000D+00  0.000000D+00
     36  0.000000D+00  0.000000D+00  0.000000D+00  0.000000D+00  0.000000D+00
     37  0.000000D+00  0.000000D+00  0.000000D+00  0.000000D+00  0.000000D+00
     38  0.319777D+00  0.000000D+00  0.000000D+00  0.000000D+00  0.000000D+00
     39 -0.131552D+00  0.000000D+00  0.000000D+00  0.000000D+00  0.000000D+00
     40  0.000000D+00  0.118468D+00 -0.630986D-01  0.000000D+00  0.000000D+00
     41  0.000000D+00 -0.630986D-01 -0.118468D+00  0.000000D+00  0.000000D+00
     42  0.000000D+00 -0.554616D-02 -0.979091D-01  0.000000D+00  0.000000D+00
     43  0.000000D+00  0.979091D-01 -0.554616D-02  0.000000D+00  0.000000D+00
     44  0.000000D+00  0.000000D+00  0.000000D+00  0.318901D+00  0.000000D+00
     45  0.000000D+00  0.000000D+00  0.000000D+00  0.000000D+00  0.105104D+00
     46  0.000000D+00  0.000000D+00  0.000000D+00  0.000000D+00 -0.189020D+00
               26            27            28            29            30 
     26  0.000000D+00
     27  0.000000D+00  0.000000D+00
     28  0.000000D+00  0.000000D+00  0.000000D+00
     29  0.000000D+00  0.000000D+00  0.104536D+01  0.000000D+00
     30  0.000000D+00  0.000000D+00  0.000000D+00 -0.121421D+01  0.000000D+00
     31  0.000000D+00  0.000000D+00  0.826078D+00  0.000000D+00  0.650524D+00
     32 -0.324889D+00  0.527053D+00  0.000000D+00  0.000000D+00  0.000000D+00
     33  0.527053D+00  0.324889D+00  0.000000D+00  0.000000D+00  0.000000D+00
     34  0.000000D+00  0.000000D+00  0.000000D+00  0.000000D+00  0.000000D+00
     35  0.000000D+00  0.000000D+00  0.000000D+00  0.000000D+00  0.000000D+00
     36  0.000000D+00  0.000000D+00  0.000000D+00  0.000000D+00  0.000000D+00
     37  0.000000D+00  0.000000D+00  0.000000D+00  0.000000D+00  0.000000D+00
     38  0.336919D+00 -0.273914D+00  0.000000D+00  0.000000D+00  0.000000D+00
     39  0.273914D+00  0.336919D+00  0.000000D+00  0.000000D+00  0.000000D+00
     40  0.000000D+00  0.000000D+00  0.000000D+00  0.000000D+00  0.000000D+00
     41  0.000000D+00  0.000000D+00  0.000000D+00  0.000000D+00  0.000000D+00
     42  0.000000D+00  0.000000D+00  0.000000D+00  0.000000D+00  0.000000D+00
     43  0.000000D+00  0.000000D+00  0.000000D+00  0.000000D+00  0.000000D+00
     44  0.000000D+00  0.000000D+00  0.227289D+00  0.000000D+00  0.798692D+00
     45  0.000000D+00  0.000000D+00  0.000000D+00  0.372683D+00  0.000000D+00
     46  0.000000D+00  0.000000D+00  0.000000D+00  0.394035D-01  0.000000D+00
               31            32            33            34            35 
     31  0.000000D+00
     32  0.000000D+00  0.000000D+00
     33  0.000000D+00  0.000000D+00  0.000000D+00
     34  0.000000D+00  0.000000D+00  0.000000D+00  0.000000D+00
     35  0.000000D+00  0.000000D+00  0.000000D+00  0.000000D+00  0.000000D+00
     36  0.000000D+00  0.000000D+00  0.000000D+00 -0.112401D+01  0.882175D+00
     37  0.000000D+00  0.000000D+00  0.000000D+00 -0.882175D+00 -0.112401D+01
     38  0.000000D+00  0.000000D+00  0.000000D+00  0.000000D+00  0.000000D+00
     39  0.000000D+00  0.000000D+00  0.000000D+00  0.000000D+00  0.000000D+00
     40  0.000000D+00  0.609723D+00 -0.115054D+01  0.000000D+00  0.000000D+00
     41  0.000000D+00 -0.115054D+01 -0.609723D+00  0.000000D+00  0.000000D+00
     42  0.000000D+00 -0.400254D+00 -0.525786D+00  0.000000D+00  0.000000D+00
     43  0.000000D+00  0.525786D+00 -0.400254D+00  0.000000D+00  0.000000D+00
     44  0.000000D+00  0.000000D+00  0.000000D+00  0.000000D+00  0.000000D+00
     45  0.887723D+00  0.000000D+00  0.000000D+00  0.000000D+00  0.000000D+00
     46  0.802301D+00  0.000000D+00  0.000000D+00  0.000000D+00  0.000000D+00
               36            37            38            39            40 
     36  0.000000D+00
     37  0.000000D+00  0.000000D+00
     38  0.000000D+00  0.000000D+00  0.000000D+00
     39  0.000000D+00  0.000000D+00  0.000000D+00  0.000000D+00
     40  0.000000D+00  0.000000D+00  0.212185D+00  0.196765D+00  0.000000D+00
     41  0.000000D+00  0.000000D+00 -0.196765D+00  0.212185D+00  0.000000D+00
     42  0.000000D+00  0.000000D+00  0.421991D+00 -0.129552D+01  0.000000D+00
     43  0.000000D+00  0.000000D+00 -0.129552D+01 -0.421991D+00  0.000000D+00
     44  0.000000D+00  0.000000D+00  0.000000D+00  0.000000D+00  0.000000D+00
     45  0.000000D+00  0.000000D+00  0.000000D+00  0.000000D+00  0.000000D+00
     46  0.000000D+00  0.000000D+00  0.000000D+00  0.000000D+00  0.000000D+00
               41            42            43            44            45 
     41  0.000000D+00
     42  0.000000D+00  0.000000D+00
     43  0.000000D+00  0.000000D+00  0.000000D+00
     44  0.000000D+00  0.000000D+00  0.000000D+00  0.000000D+00
     45  0.000000D+00  0.000000D+00  0.000000D+00 -0.913675D+00  0.000000D+00
     46  0.000000D+00  0.000000D+00  0.000000D+00  0.106511D+01  0.000000D+00
               46 
     46  0.000000D+00
 All to All state transition transition dipole moments (Au):
     state I   state J         X           Y           Z
         0        0          0.2468503098813E-15      -0.8592171168979E-16       0.1797856754262E-13
         0        1          0.8680529745484E-15      -0.1519448330590E-14       -2.032325902879    
         1        1          0.1211210042707E-14      -0.7408971018270E-15       0.3467702501101E-13
         0        2         -0.1482004066184E-14       0.1332658177224E-14       0.4576136593848E-14
         1        2         -0.1072076203524E-14      -0.9648593427448E-15       -2.180533560299    
         2        2         -0.4228627306194E-14       0.2895505663232E-14      -0.3768550421575E-13
         0        3         -0.3925296225540E-13       0.1311480175582E-13       0.8078844241437    
         1        3          0.9813603923129E-15      -0.2885190173904E-15       0.3638848211270E-13
         2        3         -0.3915371759919E-13       0.1294268488318E-13       -3.242982243990    
         3        3          0.7617243853827E-15      -0.1063172193955E-15       0.4675413645429E-13
         0        4          -1.373762928818           0.4642198955692          -0.2426510474035E-13
         1        4          0.6790435315569E-14      -0.2532232480237E-14       0.2295536986234E-14
         2        4          -1.352257949311           0.4569529653506           0.8505894787136E-13
[...]

 CI (t =     24.03887 fs)
 Step =                 9938
 Current electric field (a.u.):
   Ex=  0.0000000   Ey=  0.0000000   Ez=  0.0012886
 CI Dipole moment (au):
    X=     0.3856554072E-15    Y=    -0.4370644855E-14    Z=     0.4283585942E-01 Tot =    0.4283585942E-01
 Energy =       -1.004620178201    

 CI (t =     24.04129 fs)
 Step =                 9939
 Current electric field (a.u.):
   Ex=  0.0000000   Ey=  0.0000000   Ez=  0.0012775
 CI Dipole moment (au):
    X=     0.1699469726E-15    Y=    -0.2726421065E-14    Z=     0.4246338018E-01 Tot =    0.4246338018E-01
 Energy =       -1.004620655303    

 CI (t =     24.04371 fs)
 Step =                 9940
 Current electric field (a.u.):
   Ex=  0.0000000   Ey=  0.0000000   Ez=  0.0012664
 CI Dipole moment (au):
    X=    -0.3951290583E-16    Y=    -0.1055960618E-14    Z=     0.4208907591E-01 Tot =    0.4208907591E-01
 Energy =       -1.004621130553    

 CI (t =     24.04613 fs)
 Step =                 9941
 Current electric field (a.u.):
   Ex=  0.0000000   Ey=  0.0000000   Ez=  0.0012552
 CI Dipole moment (au):
    X=    -0.2412254811E-15    Y=     0.6398912638E-15    Z=     0.4171296619E-01 Tot =    0.4171296619E-01
 Energy =       -1.004621603864    

 CI (t =     24.04855 fs)
 Step =                 9942
 Current electric field (a.u.):
   Ex=  0.0000000   Ey=  0.0000000   Ez=  0.0012440
 CI Dipole moment (au):
    X=    -0.4343985477E-15    Y=     0.2356167249E-14    Z=     0.4133507038E-01 Tot =    0.4133507038E-01
 Energy =       -1.004622075145    

 CI (t =     24.05097 fs)
 Step =                 9943
 Current electric field (a.u.):
   Ex=  0.0000000   Ey=  0.0000000   Ez=  0.0012327
 CI Dipole moment (au):
    X=    -0.6188807364E-15    Y=     0.4084197063E-14    Z=     0.4095540759E-01 Tot =    0.4095540759E-01
 Energy =       -1.004622544309    

 CI (t =     24.05339 fs)
 Step =                 9944
 Current electric field (a.u.):
   Ex=  0.0000000   Ey=  0.0000000   Ez=  0.0012213
 CI Dipole moment (au):
    X=    -0.7949994601E-15    Y=     0.5812624132E-14    Z=     0.4057399666E-01 Tot =    0.4057399666E-01
 Energy =       -1.004623011269    

 CI (t =     24.05580 fs)
 Step =                 9945
 Current electric field (a.u.):
   Ex=  0.0000000   Ey=  0.0000000   Ez=  0.0012099
 CI Dipole moment (au):
    X=    -0.9633304762E-15    Y=     0.7528851566E-14    Z=     0.4019085623E-01 Tot =    0.4019085623E-01
 Energy =       -1.004623475938    

 CI (t =     24.05822 fs)
 Step =                 9946
 Current electric field (a.u.):
   Ex=  0.0000000   Ey=  0.0000000   Ez=  0.0011984
 CI Dipole moment (au):
    X=    -0.1124437896E-14    Y=     0.9220679686E-14    Z=     0.3980600466E-01 Tot =    0.3980600466E-01
 Energy =       -1.004623938232    

 CI (t =     24.06064 fs)
 Step =                 9947
 Current electric field (a.u.):
   Ex=  0.0000000   Ey=  0.0000000   Ez=  0.0011868
 CI Dipole moment (au):
    X=    -0.1278628015E-14    Y=     0.1087786652E-13    Z=     0.3941946010E-01 Tot =    0.3941946010E-01
 Energy =       -1.004624398065    

 CI (t =     24.06306 fs)
 Step =                 9948
 Current electric field (a.u.):
   Ex=  0.0000000   Ey=  0.0000000   Ez=  0.0011752
 CI Dipole moment (au):
    X=    -0.1425757839E-14    Y=     0.1249335576E-13    Z=     0.3903124044E-01 Tot =    0.3903124044E-01
 Energy =       -1.004624855354    

 CI (t =     24.06548 fs)
 Step =                 9949
 Current electric field (a.u.):
   Ex=  0.0000000   Ey=  0.0000000   Ez=  0.0011635
 CI Dipole moment (au):
    X=    -0.1565130097E-14    Y=     0.1406397141E-13    Z=     0.3864136335E-01 Tot =    0.3864136335E-01
 Energy =       -1.004625310016    

 CI (t =     24.06790 fs)
 Step =                 9950
 Current electric field (a.u.):
   Ex=  0.0000000   Ey=  0.0000000   Ez=  0.0011518
 CI Dipole moment (au):
    X=    -0.1695492277E-14    Y=     0.1559046592E-13    Z=     0.3824984627E-01 Tot =    0.3824984627E-01
 Energy =       -1.004625761969    

 CI (t =     24.07032 fs)
 Step =                 9951
 Current electric field (a.u.):
   Ex=  0.0000000   Ey=  0.0000000   Ez=  0.0011400
 CI Dipole moment (au):
    X=    -0.1815140282E-14    Y=     0.1707691443E-13    Z=     0.3785670639E-01 Tot =    0.3785670639E-01
 Energy =       -1.004626211130    

 CI (t =     24.07274 fs)
 Step =                 9952
 Current electric field (a.u.):
   Ex=  0.0000000   Ey=  0.0000000   Ez=  0.0011281
 CI Dipole moment (au):
    X=    -0.1922110191E-14    Y=     0.1852955505E-13    Z=     0.3746196071E-01 Tot =    0.3746196071E-01
 Energy =       -1.004626657421    

 CI (t =     24.07516 fs)
 Step =                 9953
 Current electric field (a.u.):
   Ex=  0.0000000   Ey=  0.0000000   Ez=  0.0011162
 CI Dipole moment (au):
    X=    -0.2014427374E-14    Y=     0.1995526560E-13    Z=     0.3706562595E-01 Tot =    0.3706562595E-01
 Energy =       -1.004627100761    

 CI (t =     24.07757 fs)
 Step =                 9954
 Current electric field (a.u.):
   Ex=  0.0000000   Ey=  0.0000000   Ez=  0.0011042
 CI Dipole moment (au):
    X=    -0.2090372897E-14    Y=     0.2135992703E-13    Z=     0.3666771867E-01 Tot =    0.3666771867E-01
 Energy =       -1.004627541071    

 CI (t =     24.07999 fs)
 Step =                 9955
 Current electric field (a.u.):
   Ex=  0.0000000   Ey=  0.0000000   Ez=  0.0010922
 CI Dipole moment (au):
    X=    -0.2148724424E-14    Y=     0.2274694265E-13    Z=     0.3626825516E-01 Tot =    0.3626825516E-01
 Energy =       -1.004627978273    

 CI (t =     24.08241 fs)
 Step =                 9956
 Current electric field (a.u.):
   Ex=  0.0000000   Ey=  0.0000000   Ez=  0.0010801
 CI Dipole moment (au):
    X=    -0.2188933004E-14    Y=     0.2411615684E-13    Z=     0.3586725152E-01 Tot =    0.3586725152E-01
 Energy =       -1.004628412290    

 CI (t =     24.08483 fs)
 Step =                 9957
 Current electric field (a.u.):
   Ex=  0.0000000   Ey=  0.0000000   Ez=  0.0010679
 CI Dipole moment (au):
    X=    -0.2211207559E-14    Y=     0.2546335233E-13    Z=     0.3546472364E-01 Tot =    0.3546472364E-01
 Energy =       -1.004628843045    

 CI (t =     24.08725 fs)
 Step =                 9958
 Current electric field (a.u.):
   Ex=  0.0000000   Ey=  0.0000000   Ez=  0.0010557
 CI Dipole moment (au):
    X=    -0.2216493805E-14    Y=     0.2678041100E-13    Z=     0.3506068721E-01 Tot =    0.3506068721E-01
 Energy =       -1.004629270463    

 CI (t =     24.08967 fs)
 Step =                 9959
 Current electric field (a.u.):
   Ex=  0.0000000   Ey=  0.0000000   Ez=  0.0010435
 CI Dipole moment (au):
    X=    -0.2206351382E-14    Y=     0.2805611508E-13    Z=     0.3465515768E-01 Tot =    0.3465515768E-01
 Energy =       -1.004629694468    

 CI (t =     24.09209 fs)
 Step =                 9960
 Current electric field (a.u.):
   Ex=  0.0000000   Ey=  0.0000000   Ez=  0.0010312
 CI Dipole moment (au):
    X=    -0.2182749258E-14    Y=     0.2927746179E-13    Z=     0.3424815036E-01 Tot =    0.3424815036E-01
 Energy =       -1.004630114987    

 CI (t =     24.09451 fs)
 Step =                 9961
 Current electric field (a.u.):
   Ex=  0.0000000   Ey=  0.0000000   Ez=  0.0010188
 CI Dipole moment (au):
    X=    -0.2147812493E-14    Y=     0.3043128085E-13    Z=     0.3383968031E-01 Tot =    0.3383968031E-01
 Energy =       -1.004630531946    

 CI (t =     24.09693 fs)
 Step =                 9962
 Current electric field (a.u.):
   Ex=  0.0000000   Ey=  0.0000000   Ez=  0.0010064
 CI Dipole moment (au):
    X=    -0.2103560987E-14    Y=     0.3150589542E-13    Z=     0.3342976245E-01 Tot =    0.3342976245E-01
 Energy =       -1.004630945272    

 CI (t =     24.09934 fs)
 Step =                 9963
 Current electric field (a.u.):
   Ex=  0.0000000   Ey=  0.0000000   Ez=  0.0009939
 CI Dipole moment (au):
    X=    -0.2051681796E-14    Y=     0.3249256029E-13    Z=     0.3301841149E-01 Tot =    0.3301841149E-01
 Energy =       -1.004631354895    

 CI (t =     24.10176 fs)
 Step =                 9964
 Current electric field (a.u.):
   Ex=  0.0000000   Ey=  0.0000000   Ez=  0.0009814
 CI Dipole moment (au):
    X=    -0.1993370776E-14    Y=     0.3338644766E-13    Z=     0.3260564196E-01 Tot =    0.3260564196E-01
 Energy =       -1.004631760742    

 CI (t =     24.10418 fs)
 Step =                 9965
 Current electric field (a.u.):
   Ex=  0.0000000   Ey=  0.0000000   Ez=  0.0009688
 CI Dipole moment (au):
    X=    -0.1929267752E-14    Y=     0.3418702514E-13    Z=     0.3219146824E-01 Tot =    0.3219146824E-01
 Energy =       -1.004632162743    

 CI (t =     24.10660 fs)
 Step =                 9966
 Current electric field (a.u.):
   Ex=  0.0000000   Ey=  0.0000000   Ez=  0.0009562
 CI Dipole moment (au):
    X=    -0.1859493953E-14    Y=     0.3489776952E-13    Z=     0.3177590452E-01 Tot =    0.3177590452E-01
 Energy =       -1.004632560829    

 CI (t =     24.10902 fs)
 Step =                 9967
 Current electric field (a.u.):
   Ex=  0.0000000   Ey=  0.0000000   Ez=  0.0009435
 CI Dipole moment (au):
    X=    -0.1783783715E-14    Y=     0.3552526826E-13    Z=     0.3135896484E-01 Tot =    0.3135896484E-01
 Energy =       -1.004632954931    

 CI (t =     24.11144 fs)
 Step =                 9968
 Current electric field (a.u.):
   Ex=  0.0000000   Ey=  0.0000000   Ez=  0.0009308
 CI Dipole moment (au):
    X=    -0.1701687055E-14    Y=     0.3607786039E-13    Z=     0.3094066310E-01 Tot =    0.3094066310E-01
 Energy =       -1.004633344981    

 CI (t =     24.11386 fs)
 Step =                 9969
 Current electric field (a.u.):
   Ex=  0.0000000   Ey=  0.0000000   Ez=  0.0009180
 CI Dipole moment (au):
    X=    -0.1612808295E-14    Y=     0.3656404306E-13    Z=     0.3052101302E-01 Tot =    0.3052101302E-01
 Energy =       -1.004633730911    

 CI (t =     24.11628 fs)
 Step =                 9970
 Current electric field (a.u.):
   Ex=  0.0000000   Ey=  0.0000000   Ez=  0.0009052
 CI Dipole moment (au):
    X=    -0.1517040141E-14    Y=     0.3699090762E-13    Z=     0.3010002821E-01 Tot =    0.3010002821E-01
 Energy =       -1.004634112656    

 CI (t =     24.11870 fs)
 Step =                 9971
 Current electric field (a.u.):
   Ex=  0.0000000   Ey=  0.0000000   Ez=  0.0008924
 CI Dipole moment (au):
    X=    -0.1414753595E-14    Y=     0.3736286366E-13    Z=     0.2967772212E-01 Tot =    0.2967772212E-01
 Energy =       -1.004634490149    

 CI (t =     24.12111 fs)
 Step =                 9972
 Current electric field (a.u.):
   Ex=  0.0000000   Ey=  0.0000000   Ez=  0.0008794
 CI Dipole moment (au):
    X=    -0.1306911432E-14    Y=     0.3768086150E-13    Z=     0.2925410807E-01 Tot =    0.2925410807E-01
 Energy =       -1.004634863324    

 CI (t =     24.12353 fs)
 Step =                 9973
 Current electric field (a.u.):
   Ex=  0.0000000   Ey=  0.0000000   Ez=  0.0008665
 CI Dipole moment (au):
    X=    -0.1195085608E-14    Y=     0.3794224160E-13    Z=     0.2882919929E-01 Tot =    0.2882919929E-01
 Energy =       -1.004635232119    

 CI (t =     24.12595 fs)
 Step =                 9974
 Current electric field (a.u.):
   Ex=  0.0000000   Ey=  0.0000000   Ez=  0.0008535
 CI Dipole moment (au):
    X=    -0.1081374730E-14    Y=     0.3814123597E-13    Z=     0.2840300887E-01 Tot =    0.2840300887E-01
 Energy =       -1.004635596468    

 CI (t =     24.12837 fs)
 Step =                 9975
 Current electric field (a.u.):
   Ex=  0.0000000   Ey=  0.0000000   Ez=  0.0008404
 CI Dipole moment (au):
    X=    -0.9682340336E-15    Y=     0.3827003966E-13    Z=     0.2797554979E-01 Tot =    0.2797554979E-01
 Energy =       -1.004635956309    

 CI (t =     24.13079 fs)
 Step =                 9976
 Current electric field (a.u.):
   Ex=  0.0000000   Ey=  0.0000000   Ez=  0.0008274
 CI Dipole moment (au):
    X=    -0.8582445382E-15    Y=     0.3832027657E-13    Z=     0.2754683495E-01 Tot =    0.2754683495E-01
 Energy =       -1.004636311580    

 CI (t =     24.13321 fs)
 Step =                 9977
 Current electric field (a.u.):
   Ex=  0.0000000   Ey=  0.0000000   Ez=  0.0008142
 CI Dipole moment (au):
    X=    -0.7538578630E-15    Y=     0.3828461870E-13    Z=     0.2711687717E-01 Tot =    0.2711687717E-01
 Energy =       -1.004636662219    

 CI (t =     24.13563 fs)
 Step =                 9978
 Current electric field (a.u.):
   Ex=  0.0000000   Ey=  0.0000000   Ez=  0.0008010
 CI Dipole moment (au):
    X=    -0.6571569742E-15    Y=     0.3815829254E-13    Z=     0.2668568916E-01 Tot =    0.2668568916E-01
 Energy =       -1.004637008165    

 CI (t =     24.13805 fs)
 Step =                 9979
 Current electric field (a.u.):
   Ex=  0.0000000   Ey=  0.0000000   Ez=  0.0007878
 CI Dipole moment (au):
    X=    -0.5696703753E-15    Y=     0.3794022396E-13    Z=     0.2625328359E-01 Tot =    0.2625328359E-01
 Energy =       -1.004637349358    

 CI (t =     24.14047 fs)
 Step =                 9980
 Current electric field (a.u.):
   Ex=  0.0000000   Ey=  0.0000000   Ez=  0.0007746
 CI Dipole moment (au):
    X=    -0.4922683595E-15    Y=     0.3763363180E-13    Z=     0.2581967305E-01 Tot =    0.2581967305E-01
 Energy =       -1.004637685738    

 CI (t =     24.14288 fs)
 Step =                 9981
 Current electric field (a.u.):
   Ex=  0.0000000   Ey=  0.0000000   Ez=  0.0007613
 CI Dipole moment (au):
    X=    -0.4251564455E-15    Y=     0.3724596941E-13    Z=     0.2538487008E-01 Tot =    0.2538487008E-01
 Energy =       -1.004638017248    

 CI (t =     24.14530 fs)
 Step =                 9982
 Current electric field (a.u.):
   Ex=  0.0000000   Ey=  0.0000000   Ez=  0.0007479
 CI Dipole moment (au):
    X=    -0.3679652217E-15    Y=     0.3678821978E-13    Z=     0.2494888720E-01 Tot =    0.2494888720E-01
 Energy =       -1.004638343827    

 CI (t =     24.14772 fs)
 Step =                 9983
 Current electric field (a.u.):
   Ex=  0.0000000   Ey=  0.0000000   Ez=  0.0007346
 CI Dipole moment (au):
    X=    -0.3199201500E-15    Y=     0.3627365458E-13    Z=     0.2451173687E-01 Tot =    0.2451173687E-01
 Energy =       -1.004638665420    

 CI (t =     24.15014 fs)
 Step =                 9984
 Current electric field (a.u.):
   Ex=  0.0000000   Ey=  0.0000000   Ez=  0.0007212
 CI Dipole moment (au):
    X=    -0.2800619902E-15    Y=     0.3571625436E-13    Z=     0.2407343154E-01 Tot =    0.2407343154E-01
 Energy =       -1.004638981969    

 CI (t =     24.15256 fs)
 Step =                 9985
 Current electric field (a.u.):
   Ex=  0.0000000   Ey=  0.0000000   Ez=  0.0007077
 CI Dipole moment (au):
    X=    -0.2474804950E-15    Y=     0.3512904200E-13    Z=     0.2363398364E-01 Tot =    0.2363398364E-01
 Energy =       -1.004639293419    

 CI (t =     24.15498 fs)
 Step =                 9986
 Current electric field (a.u.):
   Ex=  0.0000000   Ey=  0.0000000   Ez=  0.0006942
 CI Dipole moment (au):
    X=    -0.2215221894E-15    Y=     0.3452259490E-13    Z=     0.2319340560E-01 Tot =    0.2319340560E-01
 Energy =       -1.004639599713    

 CI (t =     24.15740 fs)
 Step =                 9987
 Current electric field (a.u.):
   Ex=  0.0000000   Ey=  0.0000000   Ez=  0.0006807
 CI Dipole moment (au):
    X=    -0.2019376504E-15    Y=     0.3390397140E-13    Z=     0.2275170984E-01 Tot =    0.2275170984E-01
 Energy =       -1.004639900798    

 CI (t =     24.15982 fs)
 Step =                 9988
 Current electric field (a.u.):
   Ex=  0.0000000   Ey=  0.0000000   Ez=  0.0006671
 CI Dipole moment (au):
    X=    -0.1889439725E-15    Y=     0.3327621927E-13    Z=     0.2230890880E-01 Tot =    0.2230890880E-01
 Energy =       -1.004640196619    

 CI (t =     24.16224 fs)
 Step =                 9989
 Current electric field (a.u.):
   Ex=  0.0000000   Ey=  0.0000000   Ez=  0.0006535
 CI Dipole moment (au):
    X=    -0.1831923169E-15    Y=     0.3263853791E-13    Z=     0.2186501495E-01 Tot =    0.2186501495E-01
 Energy =       -1.004640487122    

 CI (t =     24.16465 fs)
 Step =                 9990
 Current electric field (a.u.):
   Ex=  0.0000000   Ey=  0.0000000   Ez=  0.0006399
 CI Dipole moment (au):
    X=    -0.1856462628E-15    Y=     0.3198705944E-13    Z=     0.2142004077E-01 Tot =    0.2142004077E-01
 Energy =       -1.004640772256    

 CI (t =     24.16707 fs)
 Step =                 9991
 Current electric field (a.u.):
   Ex=  0.0000000   Ey=  0.0000000   Ez=  0.0006263
 CI Dipole moment (au):
    X=    -0.1973914881E-15    Y=     0.3131611243E-13    Z=     0.2097399879E-01 Tot =    0.2097399879E-01
 Energy =       -1.004641051968    

 CI (t =     24.16949 fs)
 Step =                 9992
 Current electric field (a.u.):
   Ex=  0.0000000   Ey=  0.0000000   Ez=  0.0006126
 CI Dipole moment (au):
    X=    -0.2194086860E-15    Y=     0.3061975327E-13    Z=     0.2052690158E-01 Tot =    0.2052690158E-01
 Energy =       -1.004641326207    

 CI (t =     24.17191 fs)
 Step =                 9993
 Current electric field (a.u.):
   Ex=  0.0000000   Ey=  0.0000000   Ez=  0.0005988
 CI Dipole moment (au):
    X=    -0.2523477050E-15    Y=     0.2989330699E-13    Z=     0.2007876176E-01 Tot =    0.2007876176E-01
 Energy =       -1.004641594922    

 CI (t =     24.17433 fs)
 Step =                 9994
 Current electric field (a.u.):
   Ex=  0.0000000   Ey=  0.0000000   Ez=  0.0005851
 CI Dipole moment (au):
    X=    -0.2963407082E-15    Y=     0.2913465811E-13    Z=     0.1962959202E-01 Tot =    0.1962959202E-01
 Energy =       -1.004641858064    

 CI (t =     24.17675 fs)
 Step =                 9995
 Current electric field (a.u.):
   Ex=  0.0000000   Ey=  0.0000000   Ez=  0.0005713
 CI Dipole moment (au):
    X=    -0.3508857279E-15    Y=     0.2834507368E-13    Z=     0.1917940513E-01 Tot =    0.1917940513E-01
 Energy =       -1.004642115583    

 CI (t =     24.17917 fs)
 Step =                 9996
 Current electric field (a.u.):
   Ex=  0.0000000   Ey=  0.0000000   Ez=  0.0005575
 CI Dipole moment (au):
    X=    -0.4148204254E-15    Y=     0.2752941789E-13    Z=     0.1872821391E-01 Tot =    0.1872821391E-01
 Energy =       -1.004642367431    

 CI (t =     24.18159 fs)
 Step =                 9997
 Current electric field (a.u.):
   Ex=  0.0000000   Ey=  0.0000000   Ez=  0.0005436
 CI Dipole moment (au):
    X=    -0.4863910652E-15    Y=     0.2669571793E-13    Z=     0.1827603128E-01 Tot =    0.1827603128E-01
 Energy =       -1.004642613561    

 CI (t =     24.18401 fs)
 Step =                 9998
 Current electric field (a.u.):
   Ex=  0.0000000   Ey=  0.0000000   Ez=  0.0005298
 CI Dipole moment (au):
    X=    -0.5634061282E-15    Y=     0.2585414755E-13    Z=     0.1782287027E-01 Tot =    0.1782287027E-01
 Energy =       -1.004642853925    

 CI (t =     24.18642 fs)
 Step =                 9999
 Current electric field (a.u.):
   Ex=  0.0000000   Ey=  0.0000000   Ez=  0.0005159
 CI Dipole moment (au):
    X=    -0.6434501820E-15    Y=     0.2501559119E-13    Z=     0.1736874400E-01 Tot =    0.1736874400E-01
 Energy =       -1.004643088476    

 CI (t =     24.18884 fs)
 Step =                10000
 Current electric field (a.u.):
   Ex=  0.0000000   Ey=  0.0000000   Ez=  0.0005019
 CI Dipole moment (au):
    X=    -0.7241238721E-15    Y=     0.2419002047E-13    Z=     0.1691366570E-01 Tot =    0.1691366570E-01
 Energy =       -1.004643317171    
 Leave Link  912 at Tue Dec 20 08:07:23 2016, MaxMem=  1610612736 cpu:             272.4 elap:              34.1
 (Enter /home1/gaussian/gdv/I03P/gdv/l9999.exe)

 This type of calculation cannot be archived.


 DO YOU KNOW THAT THE LETTERS IN "EPISCOPAL", WHEN
 REARRANGED, SPELL "PEPSI COLA"?
 Job cpu time:       0 days  0 hours  4 minutes 39.1 seconds.
 Elapsed time:       0 days  0 hours  0 minutes 34.9 seconds.
 File lengths (MBytes):  RWF=     13 Int=      2 D2E=      0 Chk=      1 Scr=      1
 Normal termination of Gaussian DV at Tue Dec 20 08:07:23 2016.
