 Entering Gaussian System, Link 0=gdv
 Input=h2+3Az.gjf
 Output=h2+3Az.log
 Initial command:
 /home1/gaussian/gdv/I03P/gdv/l1.exe "/state/partition1/597577.1.stf_r620.q/Gau-6679.inp" -scrdir="/state/partition1/597577.1.stf_r620.q/"
 Entering Link 1 = /home1/gaussian/gdv/I03P/gdv/l1.exe PID=      6680.
  
 Copyright (c) 1988,1990,1992,1993,1995,1998,2003,2009,2015,
            Gaussian, Inc.  All Rights Reserved.
  
 This is the private, development version of
 the Gaussian(R) DV system of programs. It is based on
 the Gaussian(R) 09 system (copyright 2009, Gaussian, Inc.),
 the Gaussian(R) 03 system (copyright 2003, Gaussian, Inc.),
 the Gaussian(R) 98 system (copyright 1998, Gaussian, Inc.),
 the Gaussian(R) 94 system (copyright 1995, Gaussian, Inc.),
 the Gaussian 92(TM) system (copyright 1992, Gaussian, Inc.),
 the Gaussian 90(TM) system (copyright 1990, Gaussian, Inc.),
 the Gaussian 88(TM) system (copyright 1988, Gaussian, Inc.),
 the Gaussian 86(TM) system (copyright 1986, Carnegie Mellon
 University), and the Gaussian 82(TM) system (copyright 1983,
 Carnegie Mellon University). Gaussian is a federally registered
 trademark of Gaussian, Inc.
  
 This software contains proprietary and confidential information,
 including trade secrets, belonging to Gaussian, Inc.
  
 This software is provided under written license and may be
 used, copied, transmitted, or stored only in accord with that
 written license.
  
 The following legend is applicable only to US Government
 contracts under FAR:
  
                    RESTRICTED RIGHTS LEGEND
  
 Use, reproduction and disclosure by the US Government is
 subject to restrictions as set forth in subparagraphs (a)
 and (c) of the Commercial Computer Software - Restricted
 Rights clause in FAR 52.227-19.
  
 Gaussian, Inc.
 340 Quinnipiac St., Bldg. 40, Wallingford CT 06492
  
  
 ---------------------------------------------------------------
 Warning -- This program may not be used in any manner that
 competes with the business of Gaussian, Inc. or will provide
 assistance to any competitor of Gaussian, Inc.  The licensee
 of this program is prohibited from giving any competitor of
 Gaussian, Inc. access to this program.  By using this program,
 the user acknowledges that Gaussian, Inc. is engaged in the
 business of creating and licensing software in the field of
 computational chemistry and represents and warrants to the
 licensee that it is not a competitor of Gaussian, Inc. and that
 it will not use this program in any manner prohibited above.
 ---------------------------------------------------------------
  

 Cite this work as:
 Gaussian Development Version, Revision I.03+,
 M. J. Frisch, G. W. Trucks, H. B. Schlegel, G. E. Scuseria, 
 M. A. Robb, J. R. Cheeseman, G. Scalmani, V. Barone, B. Mennucci, 
 G. A. Petersson, H. Nakatsuji, M. Caricato, X. Li, H. P. Hratchian, 
 J. Bloino, B. G. Janesko, A. F. Izmaylov, A. Marenich, F. Lipparini, 
 G. Zheng, J. L. Sonnenberg, W. Liang, M. Hada, M. Ehara, K. Toyota, 
 R. Fukuda, J. Hasegawa, M. Ishida, T. Nakajima, Y. Honda, O. Kitao, 
 H. Nakai, T. Vreven, K. Throssell, J. A. Montgomery, Jr., 
 J. E. Peralta, F. Ogliaro, M. Bearpark, J. J. Heyd, E. Brothers, 
 K. N. Kudin, V. N. Staroverov, T. Keith, R. Kobayashi, J. Normand, 
 K. Raghavachari, A. Rendell, J. C. Burant, S. S. Iyengar, J. Tomasi, 
 M. Cossi, N. Rega, J. M. Millam, M. Klene, J. E. Knox, J. B. Cross, 
 V. Bakken, C. Adamo, J. Jaramillo, R. Gomperts, R. E. Stratmann, 
 O. Yazyev, A. J. Austin, R. Cammi, C. Pomelli, J. W. Ochterski, 
 R. L. Martin, K. Morokuma, V. G. Zakrzewski, G. A. Voth, 
 P. Salvador, J. J. Dannenberg, S. Dapprich, P. V. Parandekar, 
 N. J. Mayhall, A. D. Daniels, O. Farkas, J. B. Foresman, 
 J. V. Ortiz, J. Cioslowski, and D. J. Fox, 
 Gaussian, Inc., Wallingford CT, 2014.
 
 *******************************************
 Gaussian DV:  ES64L-GDVRevI.03+  2-May-2015
                 20-Dec-2016 
 *******************************************
 %chk=h2+3Az.chk
 %subst l912 /home2/plestran/devel/guga
 %mem=12GB
 %nproc=8
 Will use up to    8 processors via shared memory.
 ----------------------------------------------------------------------
 #p nonstd 1/38=1/1; 2/12=2,15=1,17=6,18=5,40=1/2; 3/5=16,6=1,7=10,25=2
 0,30=1/1,2,3,20; 4//1; 5/5=2,38=5/2; 8/6=3,9=120000,10=1/1,4; 9/1=1638
 4,5=1,7=46,14=1,15=10000,16=10000,17=2,33=0/12; 99/5=1,9=1/99;
 ----------------------------------------------------------------------
 1/38=1/1;
 2/12=2,15=1,17=6,18=5,40=1/2;
 3/5=16,6=1,7=10,25=20,30=1/1,2,3,20;
 4//1;
 5/5=2,38=5/2;
 8/6=3,9=120000,10=1/1,4;
 9/1=16384,5=1,7=46,14=1,15=10000,16=10000,17=2/12;
 99/5=1,9=1/99;
 Leave Link    1 at Tue Dec 20 08:07:30 2016, MaxMem=  1610612736 cpu:               0.2 elap:               0.0
 (Enter /home1/gaussian/gdv/I03P/gdv/l101.exe)
 ----------------------------------------------------------------------
 H2 TD-ROCIS polarizibility using 632.8 nm light (1.9593 eV) w/ 0.001 a
 .u. intensity (3.51E13 W/cm2) for Keldysh=1.927 Time Step = 0.1 au (0.
 0024 fs) for 1000 steps (~24 fs) Linear ramp for 1 cycle and then cons
 tant for rest of sim
 ----------------------------------------------------------------------
 Symbolic Z-matrix:
 Charge =  0 Multiplicity = 1
 H                     0.        0.        0.75 
 H                     0.        0.       -0.75 
 
 ITRead=  0  0
 MicOpt= -1 -1
 NAtoms=      2 NQM=        2 NQMF=       0 NMMI=      0 NMMIF=      0
                NMic=       0 NMicF=      0.
                    Isotopes and Nuclear Properties:
 (Nuclear quadrupole moments (NQMom) in fm**2, nuclear magnetic moments (NMagM)
  in nuclear magnetons)

  Atom         1           2
 IAtWgt=           1           1
 AtmWgt=   1.0078250   1.0078250
 NucSpn=           1           1
 AtZEff=   0.0000000   0.0000000
 NQMom=    0.0000000   0.0000000
 NMagM=    2.7928460   2.7928460
 AtZNuc=   1.0000000   1.0000000
 Leave Link  101 at Tue Dec 20 08:07:30 2016, MaxMem=  1610612736 cpu:               0.7 elap:               0.1
 (Enter /home1/gaussian/gdv/I03P/gdv/l202.exe)
                          Input orientation:                          
 ---------------------------------------------------------------------
 Center     Atomic      Atomic             Coordinates (Angstroms)
 Number     Number       Type             X           Y           Z
 ---------------------------------------------------------------------
      1          1           0        0.000000    0.000000    0.750000
      2          1           0        0.000000    0.000000   -0.750000
 ---------------------------------------------------------------------
 Symmetry turned off by external request.
 Stoichiometry    H2
 Framework group  D*H[C*(H.H)]
 Deg. of freedom     1
 Full point group                 D*H     NOp   8
 Rotational constants (GHZ):      0.0000000    445.7378706    445.7378706
 Leave Link  202 at Tue Dec 20 08:07:30 2016, MaxMem=  1610612736 cpu:               0.1 elap:               0.0
 (Enter /home1/gaussian/gdv/I03P/gdv/l301.exe)
 Standard basis: Aug-CC-pVTZ (5D, 7F)
 Ernie: Thresh=  0.10000D-02 Tol=  0.10000D-05 Strict=F.
    46 basis functions,    54 primitive gaussians,    50 cartesian basis functions
     1 alpha electrons        1 beta electrons
       nuclear repulsion energy         0.3527848073 Hartrees.
 IExCor=    0 DFT=F Ex=HF Corr=None ExCW=0 ScaHFX=  1.000000
 ScaDFX=  1.000000  1.000000  1.000000  1.000000 ScalE2=  1.000000  1.000000
 IRadAn=      0 IRanWt=     -1 IRanGd=            0 ICorTp=0 IEmpDi=  4
 NAtoms=    2 NActive=    2 NUniq=    2 SFac= 1.00D+00 NAtFMM=   60 NAOKFM=F Big=F
 Integral buffers will be    131072 words long.
 Regular integral format.
 Two-electron integral symmetry is turned off.
 Leave Link  301 at Tue Dec 20 08:07:30 2016, MaxMem=  1610612736 cpu:               0.5 elap:               0.1
 (Enter /home1/gaussian/gdv/I03P/gdv/l302.exe)
 NPDir=0 NMtPBC=     1 NCelOv=     1 NCel=       1 NClECP=     1 NCelD=      1
         NCelK=      1 NCelE2=     1 NClLst=     1 CellRange=     0.0.
 One-electron integrals computed using PRISM.
 One-electron integral symmetry used in STVInt
 NBasis=    46 RedAO= T EigKep=  1.54D-03  NBF=    46
 NBsUse=    46 1.00D-06 EigRej= -1.00D+00 NBFU=    46
 Leave Link  302 at Tue Dec 20 08:07:30 2016, MaxMem=  1610612736 cpu:               1.0 elap:               0.1
 (Enter /home1/gaussian/gdv/I03P/gdv/l303.exe)
 DipDrv:  MaxL=1.
 Leave Link  303 at Tue Dec 20 08:07:30 2016, MaxMem=  1610612736 cpu:               0.2 elap:               0.0
 (Enter /home1/gaussian/gdv/I03P/gdv/l320.exe)
 Enter DskPsm, NBasis=  46 NBas6D=  50 NShell=  18 IDoSP=4.
 Out2e will use a cutoff of  1.00D-10
 FoFCou: FMM=F IPFlag=           0 FMFlag=           0 FMFlg1=           0
         NFxFlg=           0 DoJE=F BraDBF=F KetDBF=F FulRan=T
         wScrn=  0.000000 ICntrl=       600 IOpCl=  9 I1Cent=           0 NGrid=           0
         NMat0=    0 NMatS0=      0 NMatT0=    0 NMatD0=    0 NMtDS0=    0 NMtDT0=    0
 Symmetry not used in FoFCou.
       129929 integrals produced for a total of       129929.
 Leave Link  320 at Tue Dec 20 08:07:30 2016, MaxMem=  1610612736 cpu:               0.8 elap:               0.1
 (Enter /home1/gaussian/gdv/I03P/gdv/l401.exe)
 ExpMin= 2.53D-02 ExpMax= 3.39D+01 ExpMxC= 3.39D+01 IAcc=3 IRadAn=         5 AccDes= 0.00D+00
 Harris functional with IExCor=  205 and IRadAn=       5 diagonalized for initial guess.
 HarFok:  IExCor=  205 AccDes= 0.00D+00 IRadAn=         5 IDoV= 1 UseB2=F ITyADJ=14
 ICtDFT=  3500011 ScaDFX=  1.000000  1.000000  1.000000  1.000000
 FoFCou: FMM=F IPFlag=           0 FMFlag=      100000 FMFlg1=           0
         NFxFlg=           0 DoJE=T BraDBF=F KetDBF=T FulRan=T
         wScrn=  0.000000 ICntrl=       500 IOpCl=  0 I1Cent=   200000004 NGrid=           0
         NMat0=    1 NMatS0=      1 NMatT0=    0 NMatD0=    1 NMtDS0=    0 NMtDT0=    0
 Symmetry not used in FoFCou.
 Harris En= -1.07292250501878    
 JPrj=0 DoOrth=F DoCkMO=F.
 Leave Link  401 at Tue Dec 20 08:07:30 2016, MaxMem=  1610612736 cpu:               1.1 elap:               0.1
 (Enter /home1/gaussian/gdv/I03P/gdv/l502.exe)
 Keep R1 ints in memory in canonical form, NReq=2233588.
 FoFCou: FMM=F IPFlag=           0 FMFlag=           0 FMFlg1=           0
         NFxFlg=           0 DoJE=F BraDBF=F KetDBF=F FulRan=T
         wScrn=  0.000000 ICntrl=       600 IOpCl=  0 I1Cent=           0 NGrid=           0
         NMat0=    1 NMatS0=   1081 NMatT0=    0 NMatD0=    1 NMtDS0=    0 NMtDT0=    0
 Symmetry not used in FoFCou.
 Two-electron integral symmetry not used.
 Closed shell SCF:
 Using DIIS extrapolation, IDIIS=  1040.
 NGot=  1610612736 LenX=  1610022043 LenY=  1610019102
 Requested convergence on RMS density matrix=1.00D-08 within 128 cycles.
 Requested convergence on MAX density matrix=1.00D-06.
 Requested convergence on             energy=1.00D-06.
 No special actions if energy rises.

 Cycle   1  Pass 1  IDiag  1:
 E= -1.00325112513280    
 DIIS: error= 9.81D-03 at cycle   1 NSaved=   1.
 NSaved= 1 IEnMin= 1 EnMin= -1.00325112513280     IErMin= 1 ErrMin= 9.81D-03
 ErrMax= 9.81D-03  0.00D+00 EMaxC= 1.00D-01 BMatC= 1.01D-03 BMatP= 1.01D-03
 IDIUse=3 WtCom= 9.02D-01 WtEn= 9.81D-02
 Coeff-Com:  0.100D+01
 Coeff-En:   0.100D+01
 Coeff:      0.100D+01
 Gap=     0.477 Goal=   None    Shift=    0.000
 GapD=    0.477 DampG=2.000 DampE=1.000 DampFc=2.0000 IDamp=-1.
 RMSDP=4.67D-04 MaxDP=5.34D-03              OVMax= 2.07D-02

 Cycle   2  Pass 1  IDiag  1:
 E= -1.00458877810640     Delta-E=       -0.001337652974 Rises=F Damp=F
 DIIS: error= 1.50D-03 at cycle   2 NSaved=   2.
 NSaved= 2 IEnMin= 2 EnMin= -1.00458877810640     IErMin= 2 ErrMin= 1.50D-03
 ErrMax= 1.50D-03  0.00D+00 EMaxC= 1.00D-01 BMatC= 2.86D-05 BMatP= 1.01D-03
 IDIUse=3 WtCom= 9.85D-01 WtEn= 1.50D-02
 Coeff-Com: -0.177D+00 0.118D+01
 Coeff-En:   0.000D+00 0.100D+01
 Coeff:     -0.175D+00 0.117D+01
 Gap=     0.454 Goal=   None    Shift=    0.000
 RMSDP=1.49D-04 MaxDP=2.28D-03 DE=-1.34D-03 OVMax= 5.69D-03

 Cycle   3  Pass 1  IDiag  1:
 E= -1.00465017983750     Delta-E=       -0.000061401731 Rises=F Damp=F
 DIIS: error= 2.11D-04 at cycle   3 NSaved=   3.
 NSaved= 3 IEnMin= 3 EnMin= -1.00465017983750     IErMin= 3 ErrMin= 2.11D-04
 ErrMax= 2.11D-04  0.00D+00 EMaxC= 1.00D-01 BMatC= 3.67D-07 BMatP= 2.86D-05
 IDIUse=3 WtCom= 9.98D-01 WtEn= 2.11D-03
 Coeff-Com:  0.476D-01-0.353D+00 0.131D+01
 Coeff-En:   0.000D+00 0.000D+00 0.100D+01
 Coeff:      0.475D-01-0.352D+00 0.130D+01
 Gap=     0.454 Goal=   None    Shift=    0.000
 RMSDP=2.70D-05 MaxDP=4.05D-04 DE=-6.14D-05 OVMax= 9.50D-04

 Cycle   4  Pass 1  IDiag  1:
 E= -1.00465132668484     Delta-E=       -0.000001146847 Rises=F Damp=F
 DIIS: error= 1.03D-05 at cycle   4 NSaved=   4.
 NSaved= 4 IEnMin= 4 EnMin= -1.00465132668484     IErMin= 4 ErrMin= 1.03D-05
 ErrMax= 1.03D-05  0.00D+00 EMaxC= 1.00D-01 BMatC= 1.47D-09 BMatP= 3.67D-07
 IDIUse=1 WtCom= 1.00D+00 WtEn= 0.00D+00
 Coeff-Com: -0.128D-01 0.961D-01-0.381D+00 0.130D+01
 Coeff:     -0.128D-01 0.961D-01-0.381D+00 0.130D+01
 Gap=     0.454 Goal=   None    Shift=    0.000
 RMSDP=2.49D-06 MaxDP=2.87D-05 DE=-1.15D-06 OVMax= 7.14D-05

 Cycle   5  Pass 1  IDiag  1:
 E= -1.00465133202183     Delta-E=       -0.000000005337 Rises=F Damp=F
 DIIS: error= 2.46D-07 at cycle   5 NSaved=   5.
 NSaved= 5 IEnMin= 5 EnMin= -1.00465133202183     IErMin= 5 ErrMin= 2.46D-07
 ErrMax= 2.46D-07  0.00D+00 EMaxC= 1.00D-01 BMatC= 8.54D-13 BMatP= 1.47D-09
 IDIUse=1 WtCom= 1.00D+00 WtEn= 0.00D+00
 Coeff-Com:  0.106D-02-0.799D-02 0.321D-01-0.118D+00 0.109D+01
 Coeff:      0.106D-02-0.799D-02 0.321D-01-0.118D+00 0.109D+01
 Gap=     0.454 Goal=   None    Shift=    0.000
 RMSDP=4.49D-08 MaxDP=6.30D-07 DE=-5.34D-09 OVMax= 1.17D-06

 Cycle   6  Pass 1  IDiag  1:
 E= -1.00465133202398     Delta-E=       -0.000000000002 Rises=F Damp=F
 DIIS: error= 3.27D-08 at cycle   6 NSaved=   6.
 NSaved= 6 IEnMin= 6 EnMin= -1.00465133202398     IErMin= 6 ErrMin= 3.27D-08
 ErrMax= 3.27D-08  0.00D+00 EMaxC= 1.00D-01 BMatC= 9.05D-15 BMatP= 8.54D-13
 IDIUse=1 WtCom= 1.00D+00 WtEn= 0.00D+00
 Coeff-Com:  0.196D-05-0.551D-05-0.329D-04 0.107D-02-0.128D+00 0.113D+01
 Coeff:      0.196D-05-0.551D-05-0.329D-04 0.107D-02-0.128D+00 0.113D+01
 Gap=     0.454 Goal=   None    Shift=    0.000
 RMSDP=3.49D-09 MaxDP=4.69D-08 DE=-2.15D-12 OVMax= 1.30D-07

 SCF Done:  E(RHF) =  -1.00465133202     A.U. after    6 cycles
            NFock=  6  Conv=0.35D-08     -V/T= 2.3788
 KE= 7.286416811800D-01 PE=-2.562113082407D+00 EE= 4.760352619234D-01
 Leave Link  502 at Tue Dec 20 08:07:30 2016, MaxMem=  1610612736 cpu:               0.9 elap:               0.1
 (Enter /home1/gaussian/gdv/I03P/gdv/l801.exe)
 Windowed orbitals will be sorted by symmetry type.
 Range of M.O.s used for correlation:     1    46
 NBasis=    46 NAE=     1 NBE=     1 NFC=     0 NFV=     0
 NROrb=     46 NOA=     1 NOB=     1 NVA=    45 NVB=    45
 Leave Link  801 at Tue Dec 20 08:07:31 2016, MaxMem=  1610612736 cpu:               0.1 elap:               0.0
 (Enter /home1/gaussian/gdv/I03P/gdv/l804.exe)
 Closed-shell transformation, MDV=  1610612736 ITran=3 ISComp=1.
 Unit  1 TFree=         71264 TCopy=        197523.
 Semi-Direct transformation.
 ModeAB=           2 MOrb=             1 LenV=    1610409565
 LASXX=         2025 LTotXX=        2025 LenRXX=        2025
 LTotAB=        3106 MaxLAS=       58650 LenRXY=       58650
 NonZer=       62238 LenScr=      785920 LnRSAI=           0
 LnScr1=           0 LExtra=           0 Total=       846595
 MaxDsk=          -1 SrtSym=           F ITran=            3
 DoSDTr:  NPSUse=  8
 JobTyp=0 Pass  1:  I=   1 to   1.
 (rs|ai) integrals will be sorted in core.
 Complete sort for first half transformation.
 First half transformation complete.
 Complete sort for second half transformation.
 Second half transformation complete.
 Spin components of T(2) and E(2):
     alpha-alpha T2 =       0.0000000000D+00 E2=      0.0000000000D+00
     alpha-beta  T2 =       0.2785634283D-01 E2=     -0.4059185837D-01
     beta-beta   T2 =       0.0000000000D+00 E2=      0.0000000000D+00
 ANorm=    0.1013832502D+01
 E2 =    -0.4059185837D-01 EUMP2 =    -0.10452431903942D+01
 Leave Link  804 at Tue Dec 20 08:07:31 2016, MaxMem=  1610612736 cpu:               0.6 elap:               0.1
 (Enter /home2/plestran/devel/guga/l912.exe)
 Top of link  912.    Tue Dec 20 08:07:31 2016        0.00 cpu,        0.00 elapsed
 *************************************************************************************************************
 GUGA-based CI
 *************************************************************************************************************
 Number of Roots =  46
 Level of Excitation        =    1
 Spin Multiplicity =  1
 Total number of electrons  =    2
 Total Number of CSFs =       46
 -------------------------------------------------------------------------------------------------------------
 Top of DavDag.       Tue Dec 20 08:07:33 2016       15.35 cpu,        1.92 elapsed
 Davidson Disk Diagonalization is being used:
 MVecIn=     46 MSekIn=   46 NVConv=   46 NVConT=    0 MConv=   46 WhenSc=  2 IFact=    3 FinIt=T
 NRoot=    46 Conv= 1.00D-08 ConvT= 1.00D-08 MaxItI=         128 Dim=          46 Max sub=   460
 Iteration     1 internal iteration     1 dimension is    46
 Eigenvalues at current iteration:
 Root      1 :    -1.357436139304004
 Root      2 :    -1.064242262297564
 Root      3 :    -1.010595913634152
 Root      4 :    -0.961115969058046
 Root      5 :    -0.959166445504491
 Root      6 :    -0.959166445504488
 Root      7 :    -0.855300280799907
 Root      8 :    -0.850485743902061
 Root      9 :    -0.850485743902060
 Root     10 :    -0.765288458135816
 Root     11 :    -0.668861356408393
 Root     12 :    -0.563414775677659
 Root     13 :    -0.472810962362496
 Root     14 :    -0.472810962362494
 Root     15 :    -0.374210324694160
 Root     16 :    -0.374210324694159
 Root     17 :    -0.277277808307900
 Root     18 :    -0.260077285485197
 Root     19 :    -0.260077285485196
 Root     20 :    -0.245316959749895
 Root     21 :    -0.245316959749894
 Root     22 :    -0.206656531962510
 Root     23 :    -0.206656531962507
 Root     24 :    -0.203216453290578
 Root     25 :     0.031978128355830
 Root     26 :     0.144713930305776
 Root     27 :     0.144713930305780
 Root     28 :     0.516728295331100
 Root     29 :     1.304392302364958
 Root     30 :     1.713168305926252
 Root     31 :     2.226594924175764
 Root     32 :     2.335369750087508
 Root     33 :     2.335369750087533
 Root     34 :     2.471922500911903
 Root     35 :     2.471922500911923
 Root     36 :     2.553714632368230
 Root     37 :     2.553714632368233
 Root     38 :     2.712070034247232
 Root     39 :     2.712070034247252
 Root     40 :     2.802738942620187
 Root     41 :     2.802738942620203
 Root     42 :     2.834023952744679
 Root     43 :     2.834023952744680
 Root     44 :     3.026727912950330
 Root     45 :     3.077623590203135
 Root     46 :     3.813242317598720
 DEMax= 0.00D+00
 State    1 2nd order lowering   -0.450263425973E-30 norm 3.75D-16
 State    2 2nd order lowering   -0.942725377534E-28 norm 1.54D-13
 State    3 2nd order lowering   -0.168091294948E-27 norm 3.37D-13
 State    4 2nd order lowering   -0.150678590646E-25 norm 1.89D-11
 State    5 2nd order lowering   -0.104781148208E-25 norm 4.28D-12
 State    6 2nd order lowering    0.400466640133E-26 norm 2.23D-12
 State    7 2nd order lowering   -0.414433920323E-28 norm 1.10D-13
 State    8 2nd order lowering   -0.449200023939E-29 norm 1.51D-13
 State    9 2nd order lowering   -0.110078956412E-27 norm 2.73D-13
 State   10 2nd order lowering   -0.361061349258E-27 norm 8.84D-13
 State   11 2nd order lowering    0.166352303747E-28 norm 7.02D-14
 State   12 2nd order lowering    0.570455221575E-26 norm 4.73D-12
 State   13 2nd order lowering   -0.639988234952E-27 norm 1.92D-12
 State   14 2nd order lowering   -0.308966016258E-26 norm 4.23D-12
 State   15 2nd order lowering    0.198654288603E-26 norm 3.94D-12
 State   16 2nd order lowering    0.311618843540E-26 norm 4.94D-12
 State   17 2nd order lowering   -0.156610465622E-29 norm 2.33D-14
 State   18 2nd order lowering   -0.498725167186E-27 norm 1.33D-12
 State   19 2nd order lowering   -0.440834063690E-27 norm 1.25D-12
 State   20 2nd order lowering   -0.509434490166E-28 norm 2.30D-13
 State   21 2nd order lowering   -0.176998978688E-27 norm 4.25D-13
 State   22 2nd order lowering   -0.140338557234E-26 norm 2.79D-12
 State   23 2nd order lowering   -0.123483333893E-27 norm 8.46D-13
 State   24 2nd order lowering    0.616534489999E-27 norm 7.91D-13
 State   25 2nd order lowering    0.117772887483E-27 norm 2.67D-13
 State   26 2nd order lowering    0.103374058779E-26 norm 7.30D-13
 State   27 2nd order lowering    0.236141452335E-26 norm 1.10D-12
 State   28 2nd order lowering    0.175657947331E-26 norm 1.30D-12
 State   29 2nd order lowering    0.619856756135E-27 norm 1.12D-12
 State   30 2nd order lowering    0.137897812051E-27 norm 5.10D-13
 State   31 2nd order lowering   -0.531067975641E-29 norm 7.12D-14
 State   32 2nd order lowering    0.136572970693E-25 norm 9.17D-12
 State   33 2nd order lowering    0.151929554620E-25 norm 9.67D-12
 State   34 2nd order lowering    0.103468877955E-25 norm 7.74D-12
 State   35 2nd order lowering    0.217931482958E-26 norm 3.56D-12
 State   36 2nd order lowering    0.306990900866E-25 norm 1.05D-11
 State   37 2nd order lowering    0.227182692815E-25 norm 8.99D-12
 State   38 2nd order lowering    0.145953509020E-26 norm 1.78D-12
 State   39 2nd order lowering    0.525014055025E-26 norm 3.37D-12
 State   40 2nd order lowering   -0.617019298824E-27 norm 3.28D-13
 State   41 2nd order lowering   -0.153653361168E-27 norm 1.62D-13
 State   42 2nd order lowering    0.486705278368E-27 norm 2.58D-13
 State   43 2nd order lowering    0.236366412430E-27 norm 1.82D-13
 State   44 2nd order lowering    0.402384401577E-26 norm 3.01D-12
 State   45 2nd order lowering    0.376304434502E-27 norm 9.04D-13
 State   46 2nd order lowering    0.700911153828E-26 norm 3.16D-12
 Convergence achieved for final wavefunctions.
 Bot of DavDag.       Tue Dec 20 08:07:40 2016       58.54 cpu,        7.33 elapsed
 -------------------------------------------------------------------------------------------------------------
 E(CI,Root=   0) =       -1.004651332024    
 E(CI,Root=   1) =      -0.7114574550176    
 E(CI,Root=   2) =      -0.6578111063542    
 E(CI,Root=   3) =      -0.6083311617780    
 E(CI,Root=   4) =      -0.6063816382245    
 E(CI,Root=   5) =      -0.6063816382245    
 E(CI,Root=   6) =      -0.5025154735199    
 E(CI,Root=   7) =      -0.4977009366221    
 E(CI,Root=   8) =      -0.4977009366221    
 E(CI,Root=   9) =      -0.4125036508558    
 E(CI,Root=  10) =      -0.3160765491284    
 E(CI,Root=  11) =      -0.2106299683977    
 E(CI,Root=  12) =      -0.1200261550825    
 E(CI,Root=  13) =      -0.1200261550825    
 E(CI,Root=  14) =      -0.2142551741416E-01
 E(CI,Root=  15) =      -0.2142551741416E-01
 E(CI,Root=  16) =       0.7550699897210E-01
 E(CI,Root=  17) =       0.9270752179480E-01
 E(CI,Root=  18) =       0.9270752179480E-01
 E(CI,Root=  19) =       0.1074678475301    
 E(CI,Root=  20) =       0.1074678475301    
 E(CI,Root=  21) =       0.1461282753175    
 E(CI,Root=  22) =       0.1461282753175    
 E(CI,Root=  23) =       0.1495683539894    
 E(CI,Root=  24) =       0.3847629356358    
 E(CI,Root=  25) =       0.4974987375858    
 E(CI,Root=  26) =       0.4974987375858    
 E(CI,Root=  27) =       0.8695131026111    
 E(CI,Root=  28) =        1.657177109645    
 E(CI,Root=  29) =        2.065953113206    
 E(CI,Root=  30) =        2.579379731456    
 E(CI,Root=  31) =        2.688154557368    
 E(CI,Root=  32) =        2.688154557368    
 E(CI,Root=  33) =        2.824707308192    
 E(CI,Root=  34) =        2.824707308192    
 E(CI,Root=  35) =        2.906499439648    
 E(CI,Root=  36) =        2.906499439648    
 E(CI,Root=  37) =        3.064854841527    
 E(CI,Root=  38) =        3.064854841527    
 E(CI,Root=  39) =        3.155523749900    
 E(CI,Root=  40) =        3.155523749900    
 E(CI,Root=  41) =        3.186808760025    
 E(CI,Root=  42) =        3.186808760025    
 E(CI,Root=  43) =        3.379512720230    
 E(CI,Root=  44) =        3.430408397483    
 E(CI,Root=  45) =        4.166027124879    
 *************************************************************************************************************
 GUGA-based TD-CI
 *************************************************************************************************************
 Step Size =      0.00242 fs       0.10000 a.u.

 External field Parameters:
                             Ex =     0.00000 a.u.
                             Ey =     0.00000 a.u.
                             Ez =     0.00300 a.u.
                      Frequency =     1.95930 eV   Wavelength =   632.79841 nm
                          Phase =     0.00000 rad
                          t(on) =     0.00000 fs,
                         t(off) =  1000.00000 fs

 Split Operator Propagation
 Forming Transition Density
 NP =                    8
 NChunk =                  136
 CI dipole matrix                   1
                1             2             3             4             5 
      1  0.000000D+00
      2  0.000000D+00  0.000000D+00
      3  0.000000D+00  0.000000D+00  0.000000D+00
      4  0.000000D+00  0.000000D+00  0.000000D+00  0.000000D+00
      5 -0.438609D+00  0.000000D+00 -0.431743D+00  0.000000D+00  0.000000D+00
      6 -0.138215D+01  0.000000D+00 -0.136052D+01  0.000000D+00  0.000000D+00
      7  0.000000D+00  0.000000D+00  0.000000D+00  0.000000D+00  0.104053D+00
      8  0.000000D+00 -0.503428D+00  0.000000D+00 -0.162695D+00  0.000000D+00
      9  0.000000D+00 -0.145855D+01  0.000000D+00 -0.471365D+00  0.000000D+00
     10  0.000000D+00  0.000000D+00  0.000000D+00  0.000000D+00  0.000000D+00
     11  0.000000D+00  0.000000D+00  0.000000D+00  0.000000D+00 -0.361979D+00
     12  0.000000D+00  0.000000D+00  0.000000D+00  0.000000D+00  0.000000D+00
     13  0.000000D+00  0.000000D+00  0.000000D+00  0.000000D+00 -0.121927D+00
     14  0.000000D+00  0.000000D+00  0.000000D+00  0.000000D+00 -0.116322D+01
     15  0.386304D+00  0.000000D+00 -0.842800D+00  0.000000D+00  0.000000D+00
     16  0.123136D+00  0.000000D+00 -0.268646D+00  0.000000D+00  0.000000D+00
     17  0.000000D+00  0.000000D+00  0.000000D+00  0.000000D+00  0.149479D-01
     18  0.000000D+00  0.000000D+00  0.000000D+00  0.000000D+00  0.000000D+00
     19  0.000000D+00  0.000000D+00  0.000000D+00  0.000000D+00  0.000000D+00
     20  0.000000D+00 -0.275191D-01  0.000000D+00 -0.320214D+00  0.000000D+00
     21  0.000000D+00 -0.816796D-01  0.000000D+00 -0.950430D+00  0.000000D+00
     22  0.156986D+00  0.000000D+00 -0.344153D+00  0.000000D+00  0.000000D+00
     23 -0.266113D+00  0.000000D+00  0.583389D+00  0.000000D+00  0.000000D+00
     24  0.000000D+00  0.000000D+00  0.000000D+00  0.000000D+00  0.000000D+00
     25  0.000000D+00  0.000000D+00  0.000000D+00  0.000000D+00 -0.146305D-01
     26  0.000000D+00  0.697645D-01  0.000000D+00  0.237493D-01  0.000000D+00
     27  0.000000D+00 -0.794262D-02  0.000000D+00 -0.270384D-02  0.000000D+00
     28  0.000000D+00  0.000000D+00  0.000000D+00  0.000000D+00  0.000000D+00
     29  0.000000D+00  0.000000D+00  0.000000D+00  0.000000D+00  0.787874D-01
     30  0.000000D+00  0.000000D+00  0.000000D+00  0.000000D+00  0.000000D+00
     31  0.000000D+00  0.000000D+00  0.000000D+00  0.000000D+00 -0.254573D-01
     32  0.262504D-02  0.000000D+00  0.935577D-01  0.000000D+00  0.000000D+00
     33  0.487455D-03  0.000000D+00  0.173731D-01  0.000000D+00  0.000000D+00
     34  0.000000D+00  0.000000D+00  0.000000D+00  0.000000D+00  0.402206D-01
     35  0.000000D+00  0.000000D+00  0.000000D+00  0.000000D+00  0.241141D+00
     36  0.000000D+00  0.000000D+00  0.000000D+00  0.000000D+00  0.000000D+00
     37  0.000000D+00  0.000000D+00  0.000000D+00  0.000000D+00  0.000000D+00
     38  0.562708D-02  0.000000D+00  0.277714D-01  0.000000D+00  0.000000D+00
     39 -0.658313D-01  0.000000D+00 -0.324899D+00  0.000000D+00  0.000000D+00
     40  0.000000D+00  0.869055D-02  0.000000D+00  0.671577D-01  0.000000D+00
     41  0.000000D+00 -0.817850D-02  0.000000D+00 -0.632007D-01  0.000000D+00
     42  0.000000D+00  0.764276D-02  0.000000D+00  0.135223D-01  0.000000D+00
     43  0.000000D+00 -0.103630D+00  0.000000D+00 -0.183353D+00  0.000000D+00
     44  0.000000D+00  0.000000D+00  0.000000D+00  0.000000D+00  0.104216D-01
     45  0.000000D+00  0.000000D+00  0.000000D+00  0.000000D+00  0.000000D+00
     46  0.000000D+00  0.000000D+00  0.000000D+00  0.000000D+00  0.000000D+00
                6             7             8             9            10 
      6  0.000000D+00
      7  0.327893D+00  0.000000D+00
      8  0.000000D+00  0.000000D+00  0.000000D+00
      9  0.000000D+00  0.000000D+00  0.000000D+00  0.000000D+00
     10  0.000000D+00  0.000000D+00 -0.296904D-01 -0.860201D-01  0.000000D+00
     11 -0.114068D+01  0.000000D+00  0.000000D+00  0.000000D+00  0.000000D+00
     12  0.000000D+00  0.000000D+00 -0.425499D+00 -0.123277D+01  0.000000D+00
     13  0.116322D+01  0.000000D+00  0.000000D+00  0.000000D+00  0.000000D+00
     14 -0.121927D+00  0.000000D+00  0.000000D+00  0.000000D+00  0.000000D+00
     15  0.000000D+00 -0.630586D+00  0.000000D+00  0.000000D+00  0.000000D+00
     16  0.000000D+00 -0.201002D+00  0.000000D+00  0.000000D+00  0.000000D+00
     17  0.471042D-01  0.000000D+00  0.000000D+00  0.000000D+00  0.000000D+00
     18  0.000000D+00  0.000000D+00 -0.103066D+01  0.328513D+00  0.000000D+00
     19  0.000000D+00  0.000000D+00 -0.328513D+00 -0.103066D+01  0.000000D+00
     20  0.000000D+00  0.000000D+00  0.000000D+00  0.000000D+00 -0.642727D-01
     21  0.000000D+00  0.000000D+00  0.000000D+00  0.000000D+00 -0.190768D+00
     22  0.000000D+00  0.454469D+00  0.000000D+00  0.000000D+00  0.000000D+00
     23  0.000000D+00 -0.770391D+00  0.000000D+00  0.000000D+00  0.000000D+00
     24  0.000000D+00  0.000000D+00  0.121362D+00  0.351615D+00  0.000000D+00
     25 -0.461039D-01  0.000000D+00  0.000000D+00  0.000000D+00  0.000000D+00
     26  0.000000D+00  0.000000D+00  0.000000D+00  0.000000D+00  0.751655D+00
     27  0.000000D+00  0.000000D+00  0.000000D+00  0.000000D+00 -0.855752D-01
     28  0.000000D+00  0.000000D+00 -0.810158D-01 -0.234722D+00  0.000000D+00
     29  0.248276D+00  0.000000D+00  0.000000D+00  0.000000D+00  0.000000D+00
     30  0.000000D+00  0.000000D+00  0.101244D+00  0.293327D+00  0.000000D+00
     31 -0.802216D-01  0.000000D+00  0.000000D+00  0.000000D+00  0.000000D+00
     32  0.000000D+00  0.273519D+00  0.000000D+00  0.000000D+00  0.000000D+00
     33  0.000000D+00  0.507910D-01  0.000000D+00  0.000000D+00  0.000000D+00
     34  0.241141D+00  0.000000D+00  0.000000D+00  0.000000D+00  0.000000D+00
     35 -0.402206D-01  0.000000D+00  0.000000D+00  0.000000D+00  0.000000D+00
     36  0.000000D+00  0.000000D+00  0.230158D+00 -0.110496D+00  0.000000D+00
     37  0.000000D+00  0.000000D+00  0.110496D+00  0.230158D+00  0.000000D+00
     38  0.000000D+00 -0.108024D-01  0.000000D+00  0.000000D+00  0.000000D+00
     39  0.000000D+00  0.126377D+00  0.000000D+00  0.000000D+00  0.000000D+00
     40  0.000000D+00  0.000000D+00  0.000000D+00  0.000000D+00  0.139944D+00
     41  0.000000D+00  0.000000D+00  0.000000D+00  0.000000D+00 -0.131699D+00
     42  0.000000D+00  0.000000D+00  0.000000D+00  0.000000D+00 -0.778964D-03
     43  0.000000D+00  0.000000D+00  0.000000D+00  0.000000D+00  0.105622D-01
     44  0.328407D-01  0.000000D+00  0.000000D+00  0.000000D+00  0.000000D+00
     45  0.000000D+00  0.000000D+00 -0.205827D-01 -0.596331D-01  0.000000D+00
     46  0.000000D+00  0.000000D+00  0.147625D-01  0.427706D-01  0.000000D+00
               11            12            13            14            15 
     11  0.000000D+00
     12  0.000000D+00  0.000000D+00
     13  0.000000D+00  0.000000D+00  0.000000D+00
     14  0.000000D+00  0.000000D+00  0.000000D+00  0.000000D+00
     15 -0.560250D-01  0.000000D+00 -0.895199D-01  0.785619D-01  0.000000D+00
     16 -0.178582D-01  0.000000D+00 -0.785619D-01 -0.895199D-01  0.000000D+00
     17  0.000000D+00  0.000000D+00  0.000000D+00  0.000000D+00  0.745926D-01
     18  0.000000D+00  0.000000D+00  0.000000D+00  0.000000D+00  0.000000D+00
     19  0.000000D+00  0.000000D+00  0.000000D+00  0.000000D+00  0.000000D+00
     20  0.000000D+00 -0.158108D+00  0.000000D+00  0.000000D+00  0.000000D+00
     21  0.000000D+00 -0.469280D+00  0.000000D+00  0.000000D+00  0.000000D+00
     22 -0.224944D+00  0.000000D+00  0.580049D-01  0.419466D-01  0.000000D+00
     23  0.381313D+00  0.000000D+00 -0.419466D-01  0.580049D-01  0.000000D+00
     24  0.000000D+00  0.000000D+00  0.000000D+00  0.000000D+00  0.000000D+00
     25  0.000000D+00  0.000000D+00  0.000000D+00  0.000000D+00 -0.132083D+00
     26  0.000000D+00 -0.113266D+00  0.000000D+00  0.000000D+00  0.000000D+00
     27  0.000000D+00  0.128952D-01  0.000000D+00  0.000000D+00  0.000000D+00
     28  0.000000D+00  0.000000D+00  0.000000D+00  0.000000D+00  0.000000D+00
     29  0.000000D+00  0.000000D+00  0.000000D+00  0.000000D+00  0.355738D+00
     30  0.000000D+00  0.000000D+00  0.000000D+00  0.000000D+00  0.000000D+00
     31  0.000000D+00  0.000000D+00  0.000000D+00  0.000000D+00 -0.283054D+00
     32 -0.139988D+00  0.000000D+00  0.657003D-01 -0.152530D-01  0.000000D+00
     33 -0.259950D-01  0.000000D+00 -0.152530D-01 -0.657003D-01  0.000000D+00
     34  0.000000D+00  0.000000D+00  0.000000D+00  0.000000D+00  0.256339D+00
     35  0.000000D+00  0.000000D+00  0.000000D+00  0.000000D+00  0.124011D+00
     36  0.000000D+00  0.000000D+00  0.000000D+00  0.000000D+00  0.000000D+00
     37  0.000000D+00  0.000000D+00  0.000000D+00  0.000000D+00  0.000000D+00
     38 -0.228089D-01  0.000000D+00  0.777865D-01  0.143411D+00  0.000000D+00
     39  0.266842D+00  0.000000D+00 -0.143411D+00  0.777865D-01  0.000000D+00
     40  0.000000D+00  0.588520D-01  0.000000D+00  0.000000D+00  0.000000D+00
     41  0.000000D+00 -0.553844D-01  0.000000D+00  0.000000D+00  0.000000D+00
     42  0.000000D+00 -0.166930D-01  0.000000D+00  0.000000D+00  0.000000D+00
     43  0.000000D+00  0.226345D+00  0.000000D+00  0.000000D+00  0.000000D+00
     44  0.000000D+00  0.000000D+00  0.000000D+00  0.000000D+00  0.209948D+00
     45  0.000000D+00  0.000000D+00  0.000000D+00  0.000000D+00  0.000000D+00
     46  0.000000D+00  0.000000D+00  0.000000D+00  0.000000D+00  0.000000D+00
               16            17            18            19            20 
     16  0.000000D+00
     17  0.237767D-01  0.000000D+00
     18  0.000000D+00  0.000000D+00  0.000000D+00
     19  0.000000D+00  0.000000D+00  0.000000D+00  0.000000D+00
     20  0.000000D+00  0.000000D+00  0.136961D+00  0.425435D-01  0.000000D+00
     21  0.000000D+00  0.000000D+00 -0.425435D-01  0.136961D+00  0.000000D+00
     22  0.000000D+00  0.236567D-01  0.000000D+00  0.000000D+00  0.000000D+00
     23  0.000000D+00 -0.401015D-01  0.000000D+00  0.000000D+00  0.000000D+00
     24  0.000000D+00  0.000000D+00  0.000000D+00  0.000000D+00  0.292768D-01
     25 -0.421022D-01  0.000000D+00  0.000000D+00  0.000000D+00  0.000000D+00
     26  0.000000D+00  0.000000D+00  0.238063D-01  0.172482D+00  0.000000D+00
     27  0.000000D+00  0.000000D+00  0.172482D+00 -0.238063D-01  0.000000D+00
     28  0.000000D+00  0.000000D+00  0.000000D+00  0.000000D+00 -0.158109D+00
     29  0.113393D+00  0.000000D+00  0.000000D+00  0.000000D+00  0.000000D+00
     30  0.000000D+00  0.000000D+00  0.000000D+00  0.000000D+00  0.169264D+00
     31 -0.902248D-01  0.000000D+00  0.000000D+00  0.000000D+00  0.000000D+00
     32  0.000000D+00  0.488500D+00  0.000000D+00  0.000000D+00  0.000000D+00
     33  0.000000D+00  0.907117D-01  0.000000D+00  0.000000D+00  0.000000D+00
     34  0.124011D+00  0.000000D+00  0.000000D+00  0.000000D+00  0.000000D+00
     35 -0.256339D+00  0.000000D+00  0.000000D+00  0.000000D+00  0.000000D+00
     36  0.000000D+00  0.000000D+00  0.000000D+00  0.000000D+00  0.302286D+00
     37  0.000000D+00  0.000000D+00  0.000000D+00  0.000000D+00  0.142388D+00
     38  0.000000D+00 -0.656308D-02  0.000000D+00  0.000000D+00  0.000000D+00
     39  0.000000D+00  0.767817D-01  0.000000D+00  0.000000D+00  0.000000D+00
     40  0.000000D+00  0.000000D+00 -0.359387D-01  0.400571D-01  0.000000D+00
     41  0.000000D+00  0.000000D+00 -0.400571D-01 -0.359387D-01  0.000000D+00
     42  0.000000D+00  0.000000D+00  0.245828D+00 -0.240225D-01  0.000000D+00
     43  0.000000D+00  0.000000D+00  0.240225D-01  0.245828D+00  0.000000D+00
     44  0.669219D-01  0.000000D+00  0.000000D+00  0.000000D+00  0.000000D+00
     45  0.000000D+00  0.000000D+00  0.000000D+00  0.000000D+00 -0.392404D-01
     46  0.000000D+00  0.000000D+00  0.000000D+00  0.000000D+00  0.661262D-01
               21            22            23            24            25 
     21  0.000000D+00
     22  0.000000D+00  0.000000D+00
     23  0.000000D+00  0.000000D+00  0.000000D+00
     24  0.868965D-01  0.000000D+00  0.000000D+00  0.000000D+00
     25  0.000000D+00  0.251982D+00 -0.427146D+00  0.000000D+00  0.000000D+00
     26  0.000000D+00  0.000000D+00  0.000000D+00 -0.536981D+00  0.000000D+00
     27  0.000000D+00  0.000000D+00  0.000000D+00  0.611348D-01  0.000000D+00
     28 -0.469284D+00  0.000000D+00  0.000000D+00  0.000000D+00  0.000000D+00
     29  0.000000D+00  0.300294D+00 -0.509041D+00  0.000000D+00  0.000000D+00
     30  0.502395D+00  0.000000D+00  0.000000D+00  0.000000D+00  0.000000D+00
     31  0.000000D+00 -0.449698D-01  0.762303D-01  0.000000D+00  0.000000D+00
     32  0.000000D+00  0.000000D+00  0.000000D+00  0.000000D+00 -0.110818D+00
     33  0.000000D+00  0.000000D+00  0.000000D+00  0.000000D+00 -0.205783D-01
     34  0.000000D+00  0.269609D+00 -0.336839D+00  0.000000D+00  0.000000D+00
     35  0.000000D+00 -0.336839D+00 -0.269609D+00  0.000000D+00  0.000000D+00
     36 -0.142388D+00  0.000000D+00  0.000000D+00  0.000000D+00  0.000000D+00
     37  0.302286D+00  0.000000D+00  0.000000D+00  0.000000D+00  0.000000D+00
     38  0.000000D+00  0.000000D+00  0.000000D+00  0.000000D+00 -0.862236D-02
     39  0.000000D+00  0.000000D+00  0.000000D+00  0.000000D+00  0.100873D+00
     40  0.000000D+00  0.000000D+00  0.000000D+00  0.285517D-01  0.000000D+00
     41  0.000000D+00  0.000000D+00  0.000000D+00 -0.268694D-01  0.000000D+00
     42  0.000000D+00  0.000000D+00  0.000000D+00  0.197962D-01  0.000000D+00
     43  0.000000D+00  0.000000D+00  0.000000D+00 -0.268422D+00  0.000000D+00
     44  0.000000D+00 -0.910219D-01  0.154295D+00  0.000000D+00  0.000000D+00
     45 -0.116470D+00  0.000000D+00  0.000000D+00  0.000000D+00  0.000000D+00
     46  0.196270D+00  0.000000D+00  0.000000D+00  0.000000D+00  0.000000D+00
               26            27            28            29            30 
     26  0.000000D+00
     27  0.000000D+00  0.000000D+00
     28 -0.617915D-01  0.703490D-02  0.000000D+00
     29  0.000000D+00  0.000000D+00  0.000000D+00  0.000000D+00
     30  0.332132D+00 -0.378129D-01  0.000000D+00  0.000000D+00  0.000000D+00
     31  0.000000D+00  0.000000D+00  0.000000D+00  0.000000D+00  0.000000D+00
     32  0.000000D+00  0.000000D+00  0.000000D+00  0.140840D-01  0.000000D+00
     33  0.000000D+00  0.000000D+00  0.000000D+00  0.261531D-02  0.000000D+00
     34  0.000000D+00  0.000000D+00  0.000000D+00  0.000000D+00  0.000000D+00
     35  0.000000D+00  0.000000D+00  0.000000D+00  0.000000D+00  0.000000D+00
     36 -0.645482D-03  0.343842D+00  0.000000D+00  0.000000D+00  0.000000D+00
     37  0.343842D+00  0.645482D-03  0.000000D+00  0.000000D+00  0.000000D+00
     38  0.000000D+00  0.000000D+00  0.000000D+00 -0.356124D-01  0.000000D+00
     39  0.000000D+00  0.000000D+00  0.000000D+00  0.416630D+00  0.000000D+00
     40  0.000000D+00  0.000000D+00 -0.364929D+00  0.000000D+00 -0.984638D-01
     41  0.000000D+00  0.000000D+00  0.343427D+00  0.000000D+00  0.926622D-01
     42  0.000000D+00  0.000000D+00  0.147256D-01  0.000000D+00 -0.246410D-01
     43  0.000000D+00  0.000000D+00 -0.199668D+00  0.000000D+00  0.334113D+00
     44  0.000000D+00  0.000000D+00  0.000000D+00  0.000000D+00  0.000000D+00
     45  0.200063D+00 -0.227770D-01  0.000000D+00  0.000000D+00  0.000000D+00
     46 -0.222254D+00  0.253034D-01  0.000000D+00  0.000000D+00  0.000000D+00
               31            32            33            34            35 
     31  0.000000D+00
     32  0.340218D-01  0.000000D+00
     33  0.631765D-02  0.000000D+00  0.000000D+00
     34  0.000000D+00 -0.870553D-02 -0.362263D-03  0.000000D+00
     35  0.000000D+00  0.362263D-03 -0.870553D-02  0.000000D+00  0.000000D+00
     36  0.000000D+00  0.000000D+00  0.000000D+00  0.000000D+00  0.000000D+00
     37  0.000000D+00  0.000000D+00  0.000000D+00  0.000000D+00  0.000000D+00
     38 -0.105551D-01  0.000000D+00  0.000000D+00  0.407056D-01 -0.176001D+00
     39  0.123485D+00  0.000000D+00  0.000000D+00 -0.176001D+00 -0.407056D-01
     40  0.000000D+00  0.000000D+00  0.000000D+00  0.000000D+00  0.000000D+00
     41  0.000000D+00  0.000000D+00  0.000000D+00  0.000000D+00  0.000000D+00
     42  0.000000D+00  0.000000D+00  0.000000D+00  0.000000D+00  0.000000D+00
     43  0.000000D+00  0.000000D+00  0.000000D+00  0.000000D+00  0.000000D+00
     44  0.000000D+00 -0.148003D+00 -0.274832D-01  0.000000D+00  0.000000D+00
     45  0.000000D+00  0.000000D+00  0.000000D+00  0.000000D+00  0.000000D+00
     46  0.000000D+00  0.000000D+00  0.000000D+00  0.000000D+00  0.000000D+00
               36            37            38            39            40 
     36  0.000000D+00
     37  0.000000D+00  0.000000D+00
     38  0.000000D+00  0.000000D+00  0.000000D+00
     39  0.000000D+00  0.000000D+00  0.000000D+00  0.000000D+00
     40  0.501903D-01 -0.423181D-01  0.000000D+00  0.000000D+00  0.000000D+00
     41  0.423181D-01  0.501903D-01  0.000000D+00  0.000000D+00  0.000000D+00
     42 -0.158211D+00 -0.658872D-02  0.000000D+00  0.000000D+00  0.000000D+00
     43  0.658872D-02 -0.158211D+00  0.000000D+00  0.000000D+00  0.000000D+00
     44  0.000000D+00  0.000000D+00 -0.415274D-02  0.485831D-01  0.000000D+00
     45  0.000000D+00  0.000000D+00  0.000000D+00  0.000000D+00  0.551554D-01
     46  0.000000D+00  0.000000D+00  0.000000D+00  0.000000D+00  0.140595D-01
               41            42            43            44            45 
     41  0.000000D+00
     42  0.000000D+00  0.000000D+00
     43  0.000000D+00  0.000000D+00  0.000000D+00
     44  0.000000D+00  0.000000D+00  0.000000D+00  0.000000D+00
     45 -0.519056D-01  0.104533D-01 -0.141739D+00  0.000000D+00  0.000000D+00
     46 -0.132311D-01  0.133381D-01 -0.180855D+00  0.000000D+00  0.000000D+00
               46 
     46  0.000000D+00
 CI dipole matrix                   2
                1             2             3             4             5 
      1  0.000000D+00
      2  0.000000D+00  0.000000D+00
      3  0.000000D+00  0.000000D+00  0.000000D+00
      4  0.000000D+00  0.000000D+00  0.000000D+00  0.000000D+00
      5 -0.138215D+01  0.000000D+00 -0.136052D+01  0.000000D+00  0.000000D+00
      6  0.438609D+00  0.000000D+00  0.431743D+00  0.000000D+00  0.000000D+00
      7  0.000000D+00  0.000000D+00  0.000000D+00  0.000000D+00  0.327893D+00
      8  0.000000D+00 -0.145855D+01  0.000000D+00 -0.471365D+00  0.000000D+00
      9  0.000000D+00  0.503428D+00  0.000000D+00  0.162695D+00  0.000000D+00
     10  0.000000D+00  0.000000D+00  0.000000D+00  0.000000D+00  0.000000D+00
     11  0.000000D+00  0.000000D+00  0.000000D+00  0.000000D+00 -0.114068D+01
     12  0.000000D+00  0.000000D+00  0.000000D+00  0.000000D+00  0.000000D+00
     13  0.000000D+00  0.000000D+00  0.000000D+00  0.000000D+00 -0.116322D+01
     14  0.000000D+00  0.000000D+00  0.000000D+00  0.000000D+00  0.121927D+00
     15  0.123136D+00  0.000000D+00 -0.268646D+00  0.000000D+00  0.000000D+00
     16 -0.386304D+00  0.000000D+00  0.842800D+00  0.000000D+00  0.000000D+00
     17  0.000000D+00  0.000000D+00  0.000000D+00  0.000000D+00  0.471042D-01
     18  0.000000D+00  0.000000D+00  0.000000D+00  0.000000D+00  0.000000D+00
     19  0.000000D+00  0.000000D+00  0.000000D+00  0.000000D+00  0.000000D+00
     20  0.000000D+00 -0.816796D-01  0.000000D+00 -0.950430D+00  0.000000D+00
     21  0.000000D+00  0.275191D-01  0.000000D+00  0.320214D+00  0.000000D+00
     22 -0.266113D+00  0.000000D+00  0.583389D+00  0.000000D+00  0.000000D+00
     23 -0.156986D+00  0.000000D+00  0.344153D+00  0.000000D+00  0.000000D+00
     24  0.000000D+00  0.000000D+00  0.000000D+00  0.000000D+00  0.000000D+00
     25  0.000000D+00  0.000000D+00  0.000000D+00  0.000000D+00 -0.461039D-01
     26  0.000000D+00  0.794262D-02  0.000000D+00  0.270384D-02  0.000000D+00
     27  0.000000D+00  0.697645D-01  0.000000D+00  0.237493D-01  0.000000D+00
     28  0.000000D+00  0.000000D+00  0.000000D+00  0.000000D+00  0.000000D+00
     29  0.000000D+00  0.000000D+00  0.000000D+00  0.000000D+00  0.248276D+00
     30  0.000000D+00  0.000000D+00  0.000000D+00  0.000000D+00  0.000000D+00
     31  0.000000D+00  0.000000D+00  0.000000D+00  0.000000D+00 -0.802216D-01
     32 -0.487455D-03  0.000000D+00 -0.173731D-01  0.000000D+00  0.000000D+00
     33  0.262504D-02  0.000000D+00  0.935577D-01  0.000000D+00  0.000000D+00
     34  0.000000D+00  0.000000D+00  0.000000D+00  0.000000D+00 -0.241141D+00
     35  0.000000D+00  0.000000D+00  0.000000D+00  0.000000D+00  0.402206D-01
     36  0.000000D+00  0.000000D+00  0.000000D+00  0.000000D+00  0.000000D+00
     37  0.000000D+00  0.000000D+00  0.000000D+00  0.000000D+00  0.000000D+00
     38 -0.658313D-01  0.000000D+00 -0.324899D+00  0.000000D+00  0.000000D+00
     39 -0.562708D-02  0.000000D+00 -0.277714D-01  0.000000D+00  0.000000D+00
     40  0.000000D+00 -0.817850D-02  0.000000D+00 -0.632007D-01  0.000000D+00
     41  0.000000D+00 -0.869055D-02  0.000000D+00 -0.671577D-01  0.000000D+00
     42  0.000000D+00 -0.103630D+00  0.000000D+00 -0.183353D+00  0.000000D+00
     43  0.000000D+00 -0.764276D-02  0.000000D+00 -0.135223D-01  0.000000D+00
     44  0.000000D+00  0.000000D+00  0.000000D+00  0.000000D+00  0.328407D-01
     45  0.000000D+00  0.000000D+00  0.000000D+00  0.000000D+00  0.000000D+00
     46  0.000000D+00  0.000000D+00  0.000000D+00  0.000000D+00  0.000000D+00
                6             7             8             9            10 
      6  0.000000D+00
      7 -0.104053D+00  0.000000D+00
      8  0.000000D+00  0.000000D+00  0.000000D+00
      9  0.000000D+00  0.000000D+00  0.000000D+00  0.000000D+00
     10  0.000000D+00  0.000000D+00 -0.860201D-01  0.296904D-01  0.000000D+00
     11  0.361979D+00  0.000000D+00  0.000000D+00  0.000000D+00  0.000000D+00
     12  0.000000D+00  0.000000D+00 -0.123277D+01  0.425499D+00  0.000000D+00
     13 -0.121927D+00  0.000000D+00  0.000000D+00  0.000000D+00  0.000000D+00
     14 -0.116322D+01  0.000000D+00  0.000000D+00  0.000000D+00  0.000000D+00
     15  0.000000D+00 -0.201002D+00  0.000000D+00  0.000000D+00  0.000000D+00
     16  0.000000D+00  0.630586D+00  0.000000D+00  0.000000D+00  0.000000D+00
     17 -0.149479D-01  0.000000D+00  0.000000D+00  0.000000D+00  0.000000D+00
     18  0.000000D+00  0.000000D+00 -0.328513D+00 -0.103066D+01  0.000000D+00
     19  0.000000D+00  0.000000D+00  0.103066D+01 -0.328513D+00  0.000000D+00
     20  0.000000D+00  0.000000D+00  0.000000D+00  0.000000D+00 -0.190768D+00
     21  0.000000D+00  0.000000D+00  0.000000D+00  0.000000D+00  0.642727D-01
     22  0.000000D+00 -0.770391D+00  0.000000D+00  0.000000D+00  0.000000D+00
     23  0.000000D+00 -0.454469D+00  0.000000D+00  0.000000D+00  0.000000D+00
     24  0.000000D+00  0.000000D+00  0.351615D+00 -0.121362D+00  0.000000D+00
     25  0.146305D-01  0.000000D+00  0.000000D+00  0.000000D+00  0.000000D+00
     26  0.000000D+00  0.000000D+00  0.000000D+00  0.000000D+00  0.855752D-01
     27  0.000000D+00  0.000000D+00  0.000000D+00  0.000000D+00  0.751655D+00
     28  0.000000D+00  0.000000D+00 -0.234722D+00  0.810158D-01  0.000000D+00
     29 -0.787874D-01  0.000000D+00  0.000000D+00  0.000000D+00  0.000000D+00
     30  0.000000D+00  0.000000D+00  0.293327D+00 -0.101244D+00  0.000000D+00
     31  0.254573D-01  0.000000D+00  0.000000D+00  0.000000D+00  0.000000D+00
     32  0.000000D+00 -0.507910D-01  0.000000D+00  0.000000D+00  0.000000D+00
     33  0.000000D+00  0.273519D+00  0.000000D+00  0.000000D+00  0.000000D+00
     34  0.402206D-01  0.000000D+00  0.000000D+00  0.000000D+00  0.000000D+00
     35  0.241141D+00  0.000000D+00  0.000000D+00  0.000000D+00  0.000000D+00
     36  0.000000D+00  0.000000D+00  0.110496D+00  0.230158D+00  0.000000D+00
     37  0.000000D+00  0.000000D+00 -0.230158D+00  0.110496D+00  0.000000D+00
     38  0.000000D+00  0.126377D+00  0.000000D+00  0.000000D+00  0.000000D+00
     39  0.000000D+00  0.108024D-01  0.000000D+00  0.000000D+00  0.000000D+00
     40  0.000000D+00  0.000000D+00  0.000000D+00  0.000000D+00 -0.131699D+00
     41  0.000000D+00  0.000000D+00  0.000000D+00  0.000000D+00 -0.139944D+00
     42  0.000000D+00  0.000000D+00  0.000000D+00  0.000000D+00  0.105622D-01
     43  0.000000D+00  0.000000D+00  0.000000D+00  0.000000D+00  0.778964D-03
     44 -0.104216D-01  0.000000D+00  0.000000D+00  0.000000D+00  0.000000D+00
     45  0.000000D+00  0.000000D+00 -0.596331D-01  0.205827D-01  0.000000D+00
     46  0.000000D+00  0.000000D+00  0.427706D-01 -0.147625D-01  0.000000D+00
               11            12            13            14            15 
     11  0.000000D+00
     12  0.000000D+00  0.000000D+00
     13  0.000000D+00  0.000000D+00  0.000000D+00
     14  0.000000D+00  0.000000D+00  0.000000D+00  0.000000D+00
     15 -0.178582D-01  0.000000D+00  0.785619D-01  0.895199D-01  0.000000D+00
     16  0.560250D-01  0.000000D+00 -0.895199D-01  0.785619D-01  0.000000D+00
     17  0.000000D+00  0.000000D+00  0.000000D+00  0.000000D+00  0.237767D-01
     18  0.000000D+00  0.000000D+00  0.000000D+00  0.000000D+00  0.000000D+00
     19  0.000000D+00  0.000000D+00  0.000000D+00  0.000000D+00  0.000000D+00
     20  0.000000D+00 -0.469280D+00  0.000000D+00  0.000000D+00  0.000000D+00
     21  0.000000D+00  0.158108D+00  0.000000D+00  0.000000D+00  0.000000D+00
     22  0.381313D+00  0.000000D+00  0.419466D-01 -0.580049D-01  0.000000D+00
     23  0.224944D+00  0.000000D+00  0.580049D-01  0.419466D-01  0.000000D+00
     24  0.000000D+00  0.000000D+00  0.000000D+00  0.000000D+00  0.000000D+00
     25  0.000000D+00  0.000000D+00  0.000000D+00  0.000000D+00 -0.421022D-01
     26  0.000000D+00 -0.128952D-01  0.000000D+00  0.000000D+00  0.000000D+00
     27  0.000000D+00 -0.113266D+00  0.000000D+00  0.000000D+00  0.000000D+00
     28  0.000000D+00  0.000000D+00  0.000000D+00  0.000000D+00  0.000000D+00
     29  0.000000D+00  0.000000D+00  0.000000D+00  0.000000D+00  0.113393D+00
     30  0.000000D+00  0.000000D+00  0.000000D+00  0.000000D+00  0.000000D+00
     31  0.000000D+00  0.000000D+00  0.000000D+00  0.000000D+00 -0.902248D-01
     32  0.259950D-01  0.000000D+00 -0.152530D-01 -0.657003D-01  0.000000D+00
     33 -0.139988D+00  0.000000D+00 -0.657003D-01  0.152530D-01  0.000000D+00
     34  0.000000D+00  0.000000D+00  0.000000D+00  0.000000D+00 -0.124011D+00
     35  0.000000D+00  0.000000D+00  0.000000D+00  0.000000D+00  0.256339D+00
     36  0.000000D+00  0.000000D+00  0.000000D+00  0.000000D+00  0.000000D+00
     37  0.000000D+00  0.000000D+00  0.000000D+00  0.000000D+00  0.000000D+00
     38  0.266842D+00  0.000000D+00  0.143411D+00 -0.777865D-01  0.000000D+00
     39  0.228089D-01  0.000000D+00  0.777865D-01  0.143411D+00  0.000000D+00
     40  0.000000D+00 -0.553844D-01  0.000000D+00  0.000000D+00  0.000000D+00
     41  0.000000D+00 -0.588520D-01  0.000000D+00  0.000000D+00  0.000000D+00
     42  0.000000D+00  0.226345D+00  0.000000D+00  0.000000D+00  0.000000D+00
     43  0.000000D+00  0.166930D-01  0.000000D+00  0.000000D+00  0.000000D+00
     44  0.000000D+00  0.000000D+00  0.000000D+00  0.000000D+00  0.669219D-01
     45  0.000000D+00  0.000000D+00  0.000000D+00  0.000000D+00  0.000000D+00
     46  0.000000D+00  0.000000D+00  0.000000D+00  0.000000D+00  0.000000D+00
               16            17            18            19            20 
     16  0.000000D+00
     17 -0.745926D-01  0.000000D+00
     18  0.000000D+00  0.000000D+00  0.000000D+00
     19  0.000000D+00  0.000000D+00  0.000000D+00  0.000000D+00
     20  0.000000D+00  0.000000D+00  0.425435D-01 -0.136961D+00  0.000000D+00
     21  0.000000D+00  0.000000D+00  0.136961D+00  0.425435D-01  0.000000D+00
     22  0.000000D+00 -0.401015D-01  0.000000D+00  0.000000D+00  0.000000D+00
     23  0.000000D+00 -0.236567D-01  0.000000D+00  0.000000D+00  0.000000D+00
     24  0.000000D+00  0.000000D+00  0.000000D+00  0.000000D+00  0.868965D-01
     25  0.132083D+00  0.000000D+00  0.000000D+00  0.000000D+00  0.000000D+00
     26  0.000000D+00  0.000000D+00  0.172482D+00 -0.238063D-01  0.000000D+00
     27  0.000000D+00  0.000000D+00 -0.238063D-01 -0.172482D+00  0.000000D+00
     28  0.000000D+00  0.000000D+00  0.000000D+00  0.000000D+00 -0.469284D+00
     29 -0.355738D+00  0.000000D+00  0.000000D+00  0.000000D+00  0.000000D+00
     30  0.000000D+00  0.000000D+00  0.000000D+00  0.000000D+00  0.502395D+00
     31  0.283054D+00  0.000000D+00  0.000000D+00  0.000000D+00  0.000000D+00
     32  0.000000D+00 -0.907117D-01  0.000000D+00  0.000000D+00  0.000000D+00
     33  0.000000D+00  0.488500D+00  0.000000D+00  0.000000D+00  0.000000D+00
     34  0.256339D+00  0.000000D+00  0.000000D+00  0.000000D+00  0.000000D+00
     35  0.124011D+00  0.000000D+00  0.000000D+00  0.000000D+00  0.000000D+00
     36  0.000000D+00  0.000000D+00  0.000000D+00  0.000000D+00  0.142388D+00
     37  0.000000D+00  0.000000D+00  0.000000D+00  0.000000D+00 -0.302286D+00
     38  0.000000D+00  0.767817D-01  0.000000D+00  0.000000D+00  0.000000D+00
     39  0.000000D+00  0.656308D-02  0.000000D+00  0.000000D+00  0.000000D+00
     40  0.000000D+00  0.000000D+00  0.400571D-01  0.359387D-01  0.000000D+00
     41  0.000000D+00  0.000000D+00 -0.359387D-01  0.400571D-01  0.000000D+00
     42  0.000000D+00  0.000000D+00 -0.240225D-01 -0.245828D+00  0.000000D+00
     43  0.000000D+00  0.000000D+00  0.245828D+00 -0.240225D-01  0.000000D+00
     44 -0.209948D+00  0.000000D+00  0.000000D+00  0.000000D+00  0.000000D+00
     45  0.000000D+00  0.000000D+00  0.000000D+00  0.000000D+00 -0.116470D+00
     46  0.000000D+00  0.000000D+00  0.000000D+00  0.000000D+00  0.196270D+00
               21            22            23            24            25 
     21  0.000000D+00
     22  0.000000D+00  0.000000D+00
     23  0.000000D+00  0.000000D+00  0.000000D+00
     24 -0.292768D-01  0.000000D+00  0.000000D+00  0.000000D+00
     25  0.000000D+00 -0.427146D+00 -0.251982D+00  0.000000D+00  0.000000D+00
     26  0.000000D+00  0.000000D+00  0.000000D+00 -0.611348D-01  0.000000D+00
     27  0.000000D+00  0.000000D+00  0.000000D+00 -0.536981D+00  0.000000D+00
     28  0.158109D+00  0.000000D+00  0.000000D+00  0.000000D+00  0.000000D+00
     29  0.000000D+00 -0.509041D+00 -0.300294D+00  0.000000D+00  0.000000D+00
     30 -0.169264D+00  0.000000D+00  0.000000D+00  0.000000D+00  0.000000D+00
     31  0.000000D+00  0.762303D-01  0.449698D-01  0.000000D+00  0.000000D+00
     32  0.000000D+00  0.000000D+00  0.000000D+00  0.000000D+00  0.205783D-01
     33  0.000000D+00  0.000000D+00  0.000000D+00  0.000000D+00 -0.110818D+00
     34  0.000000D+00  0.336839D+00  0.269609D+00  0.000000D+00  0.000000D+00
     35  0.000000D+00  0.269609D+00 -0.336839D+00  0.000000D+00  0.000000D+00
     36  0.302286D+00  0.000000D+00  0.000000D+00  0.000000D+00  0.000000D+00
     37  0.142388D+00  0.000000D+00  0.000000D+00  0.000000D+00  0.000000D+00
     38  0.000000D+00  0.000000D+00  0.000000D+00  0.000000D+00  0.100873D+00
     39  0.000000D+00  0.000000D+00  0.000000D+00  0.000000D+00  0.862236D-02
     40  0.000000D+00  0.000000D+00  0.000000D+00 -0.268694D-01  0.000000D+00
     41  0.000000D+00  0.000000D+00  0.000000D+00 -0.285517D-01  0.000000D+00
     42  0.000000D+00  0.000000D+00  0.000000D+00 -0.268422D+00  0.000000D+00
     43  0.000000D+00  0.000000D+00  0.000000D+00 -0.197962D-01  0.000000D+00
     44  0.000000D+00  0.154295D+00  0.910219D-01  0.000000D+00  0.000000D+00
     45  0.392404D-01  0.000000D+00  0.000000D+00  0.000000D+00  0.000000D+00
     46 -0.661262D-01  0.000000D+00  0.000000D+00  0.000000D+00  0.000000D+00
               26            27            28            29            30 
     26  0.000000D+00
     27  0.000000D+00  0.000000D+00
     28 -0.703490D-02 -0.617915D-01  0.000000D+00
     29  0.000000D+00  0.000000D+00  0.000000D+00  0.000000D+00
     30  0.378129D-01  0.332132D+00  0.000000D+00  0.000000D+00  0.000000D+00
     31  0.000000D+00  0.000000D+00  0.000000D+00  0.000000D+00  0.000000D+00
     32  0.000000D+00  0.000000D+00  0.000000D+00 -0.261531D-02  0.000000D+00
     33  0.000000D+00  0.000000D+00  0.000000D+00  0.140840D-01  0.000000D+00
     34  0.000000D+00  0.000000D+00  0.000000D+00  0.000000D+00  0.000000D+00
     35  0.000000D+00  0.000000D+00  0.000000D+00  0.000000D+00  0.000000D+00
     36  0.343842D+00  0.645482D-03  0.000000D+00  0.000000D+00  0.000000D+00
     37  0.645482D-03 -0.343842D+00  0.000000D+00  0.000000D+00  0.000000D+00
     38  0.000000D+00  0.000000D+00  0.000000D+00  0.416630D+00  0.000000D+00
     39  0.000000D+00  0.000000D+00  0.000000D+00  0.356124D-01  0.000000D+00
     40  0.000000D+00  0.000000D+00  0.343427D+00  0.000000D+00  0.926622D-01
     41  0.000000D+00  0.000000D+00  0.364929D+00  0.000000D+00  0.984638D-01
     42  0.000000D+00  0.000000D+00 -0.199668D+00  0.000000D+00  0.334113D+00
     43  0.000000D+00  0.000000D+00 -0.147256D-01  0.000000D+00  0.246410D-01
     44  0.000000D+00  0.000000D+00  0.000000D+00  0.000000D+00  0.000000D+00
     45  0.227770D-01  0.200063D+00  0.000000D+00  0.000000D+00  0.000000D+00
     46 -0.253034D-01 -0.222254D+00  0.000000D+00  0.000000D+00  0.000000D+00
               31            32            33            34            35 
     31  0.000000D+00
     32 -0.631765D-02  0.000000D+00
     33  0.340218D-01  0.000000D+00  0.000000D+00
     34  0.000000D+00 -0.362263D-03  0.870553D-02  0.000000D+00
     35  0.000000D+00 -0.870553D-02 -0.362263D-03  0.000000D+00  0.000000D+00
     36  0.000000D+00  0.000000D+00  0.000000D+00  0.000000D+00  0.000000D+00
     37  0.000000D+00  0.000000D+00  0.000000D+00  0.000000D+00  0.000000D+00
     38  0.123485D+00  0.000000D+00  0.000000D+00  0.176001D+00  0.407056D-01
     39  0.105551D-01  0.000000D+00  0.000000D+00  0.407056D-01 -0.176001D+00
     40  0.000000D+00  0.000000D+00  0.000000D+00  0.000000D+00  0.000000D+00
     41  0.000000D+00  0.000000D+00  0.000000D+00  0.000000D+00  0.000000D+00
     42  0.000000D+00  0.000000D+00  0.000000D+00  0.000000D+00  0.000000D+00
     43  0.000000D+00  0.000000D+00  0.000000D+00  0.000000D+00  0.000000D+00
     44  0.000000D+00  0.274832D-01 -0.148003D+00  0.000000D+00  0.000000D+00
     45  0.000000D+00  0.000000D+00  0.000000D+00  0.000000D+00  0.000000D+00
     46  0.000000D+00  0.000000D+00  0.000000D+00  0.000000D+00  0.000000D+00
               36            37            38            39            40 
     36  0.000000D+00
     37  0.000000D+00  0.000000D+00
     38  0.000000D+00  0.000000D+00  0.000000D+00
     39  0.000000D+00  0.000000D+00  0.000000D+00  0.000000D+00
     40 -0.423181D-01 -0.501903D-01  0.000000D+00  0.000000D+00  0.000000D+00
     41  0.501903D-01 -0.423181D-01  0.000000D+00  0.000000D+00  0.000000D+00
     42 -0.658872D-02  0.158211D+00  0.000000D+00  0.000000D+00  0.000000D+00
     43 -0.158211D+00 -0.658872D-02  0.000000D+00  0.000000D+00  0.000000D+00
     44  0.000000D+00  0.000000D+00  0.485831D-01  0.415274D-02  0.000000D+00
     45  0.000000D+00  0.000000D+00  0.000000D+00  0.000000D+00 -0.519056D-01
     46  0.000000D+00  0.000000D+00  0.000000D+00  0.000000D+00 -0.132311D-01
               41            42            43            44            45 
     41  0.000000D+00
     42  0.000000D+00  0.000000D+00
     43  0.000000D+00  0.000000D+00  0.000000D+00
     44  0.000000D+00  0.000000D+00  0.000000D+00  0.000000D+00
     45 -0.551554D-01 -0.141739D+00 -0.104533D-01  0.000000D+00  0.000000D+00
     46 -0.140595D-01 -0.180855D+00 -0.133381D-01  0.000000D+00  0.000000D+00
               46 
     46  0.000000D+00
 CI dipole matrix                   3
                1             2             3             4             5 
      1  0.000000D+00
      2 -0.203233D+01  0.000000D+00
      3  0.000000D+00 -0.218053D+01  0.000000D+00
      4  0.807884D+00  0.000000D+00 -0.324298D+01  0.000000D+00
      5  0.000000D+00  0.000000D+00  0.000000D+00  0.000000D+00  0.000000D+00
      6  0.000000D+00  0.000000D+00  0.000000D+00  0.000000D+00  0.000000D+00
      7  0.000000D+00 -0.190895D+01  0.000000D+00  0.437590D+00  0.000000D+00
      8  0.000000D+00  0.000000D+00  0.000000D+00  0.000000D+00 -0.193105D+01
      9  0.000000D+00  0.000000D+00  0.000000D+00  0.000000D+00  0.484165D-01
     10 -0.151168D+00  0.000000D+00  0.618688D-03  0.000000D+00  0.000000D+00
     11  0.000000D+00  0.297683D+00  0.000000D+00  0.147457D+01  0.000000D+00
     12  0.167404D+00  0.000000D+00  0.114965D+00  0.000000D+00  0.000000D+00
     13  0.000000D+00  0.000000D+00  0.000000D+00  0.000000D+00  0.000000D+00
     14  0.000000D+00  0.000000D+00  0.000000D+00  0.000000D+00  0.000000D+00
     15  0.000000D+00  0.000000D+00  0.000000D+00  0.000000D+00  0.000000D+00
     16  0.000000D+00  0.000000D+00  0.000000D+00  0.000000D+00  0.000000D+00
     17  0.000000D+00 -0.644811D-01  0.000000D+00 -0.100094D+01  0.000000D+00
     18  0.000000D+00  0.000000D+00  0.000000D+00  0.000000D+00  0.000000D+00
     19  0.000000D+00  0.000000D+00  0.000000D+00  0.000000D+00  0.000000D+00
     20  0.000000D+00  0.000000D+00  0.000000D+00  0.000000D+00  0.758114D-01
     21  0.000000D+00  0.000000D+00  0.000000D+00  0.000000D+00 -0.134088D-02
     22  0.000000D+00  0.000000D+00  0.000000D+00  0.000000D+00  0.000000D+00
     23  0.000000D+00  0.000000D+00  0.000000D+00  0.000000D+00  0.000000D+00
     24 -0.156201D+00  0.000000D+00  0.859975D-01  0.000000D+00  0.000000D+00
     25  0.000000D+00 -0.165276D+00  0.000000D+00 -0.404497D+00  0.000000D+00
     26  0.000000D+00  0.000000D+00  0.000000D+00  0.000000D+00 -0.716052D-01
     27  0.000000D+00  0.000000D+00  0.000000D+00  0.000000D+00 -0.160066D+00
     28  0.105574D+00  0.000000D+00 -0.118287D-01  0.000000D+00  0.000000D+00
     29  0.000000D+00 -0.140847D+00  0.000000D+00 -0.399453D+00  0.000000D+00
     30  0.451980D-01  0.000000D+00 -0.138397D-01  0.000000D+00  0.000000D+00
     31  0.000000D+00  0.268640D-01  0.000000D+00 -0.269217D-02  0.000000D+00
     32  0.000000D+00  0.000000D+00  0.000000D+00  0.000000D+00  0.000000D+00
     33  0.000000D+00  0.000000D+00  0.000000D+00  0.000000D+00  0.000000D+00
     34  0.000000D+00  0.000000D+00  0.000000D+00  0.000000D+00  0.000000D+00
     35  0.000000D+00  0.000000D+00  0.000000D+00  0.000000D+00  0.000000D+00
     36  0.000000D+00  0.000000D+00  0.000000D+00  0.000000D+00  0.000000D+00
     37  0.000000D+00  0.000000D+00  0.000000D+00  0.000000D+00  0.000000D+00
     38  0.000000D+00  0.000000D+00  0.000000D+00  0.000000D+00  0.000000D+00
     39  0.000000D+00  0.000000D+00  0.000000D+00  0.000000D+00  0.000000D+00
     40  0.000000D+00  0.000000D+00  0.000000D+00  0.000000D+00  0.177373D-01
     41  0.000000D+00  0.000000D+00  0.000000D+00  0.000000D+00  0.369294D-01
     42  0.000000D+00  0.000000D+00  0.000000D+00  0.000000D+00 -0.279520D-01
     43  0.000000D+00  0.000000D+00  0.000000D+00  0.000000D+00 -0.111936D-01
     44  0.000000D+00 -0.126665D+00  0.000000D+00 -0.181210D+00  0.000000D+00
     45 -0.499587D-01  0.000000D+00  0.179758D-01  0.000000D+00  0.000000D+00
     46  0.118513D-01  0.000000D+00 -0.438830D-02  0.000000D+00  0.000000D+00
                6             7             8             9            10 
      6  0.000000D+00
      7  0.000000D+00  0.000000D+00
      8 -0.484165D-01  0.000000D+00  0.000000D+00
      9 -0.193105D+01  0.000000D+00  0.000000D+00  0.000000D+00
     10  0.000000D+00  0.292400D+01  0.000000D+00  0.000000D+00  0.000000D+00
     11  0.000000D+00  0.000000D+00  0.000000D+00  0.000000D+00  0.923829D+00
     12  0.000000D+00  0.103125D+00  0.000000D+00  0.000000D+00  0.000000D+00
     13  0.000000D+00  0.000000D+00  0.000000D+00  0.000000D+00  0.000000D+00
     14  0.000000D+00  0.000000D+00  0.000000D+00  0.000000D+00  0.000000D+00
     15  0.000000D+00  0.000000D+00 -0.780621D+00 -0.104643D+01  0.000000D+00
     16  0.000000D+00  0.000000D+00  0.104643D+01 -0.780621D+00  0.000000D+00
     17  0.000000D+00  0.000000D+00  0.000000D+00  0.000000D+00  0.140572D+01
     18  0.000000D+00  0.000000D+00  0.000000D+00  0.000000D+00  0.000000D+00
     19  0.000000D+00  0.000000D+00  0.000000D+00  0.000000D+00  0.000000D+00
     20  0.134088D-02  0.000000D+00  0.000000D+00  0.000000D+00  0.000000D+00
     21  0.758114D-01  0.000000D+00  0.000000D+00  0.000000D+00  0.000000D+00
     22  0.000000D+00  0.000000D+00 -0.405095D+00  0.475643D+00  0.000000D+00
     23  0.000000D+00  0.000000D+00 -0.475643D+00 -0.405095D+00  0.000000D+00
     24  0.000000D+00 -0.263128D+00  0.000000D+00  0.000000D+00  0.000000D+00
     25  0.000000D+00  0.000000D+00  0.000000D+00  0.000000D+00 -0.937326D+00
     26 -0.160066D+00  0.000000D+00  0.000000D+00  0.000000D+00  0.000000D+00
     27  0.716052D-01  0.000000D+00  0.000000D+00  0.000000D+00  0.000000D+00
     28  0.000000D+00 -0.154454D+00  0.000000D+00  0.000000D+00  0.000000D+00
     29  0.000000D+00  0.000000D+00  0.000000D+00  0.000000D+00 -0.463334D+00
     30  0.000000D+00  0.267989D-01  0.000000D+00  0.000000D+00  0.000000D+00
     31  0.000000D+00  0.000000D+00  0.000000D+00  0.000000D+00 -0.349430D+00
     32  0.000000D+00  0.000000D+00  0.581427D-01  0.387988D+00  0.000000D+00
     33  0.000000D+00  0.000000D+00  0.387988D+00 -0.581427D-01  0.000000D+00
     34  0.000000D+00  0.000000D+00  0.000000D+00  0.000000D+00  0.000000D+00
     35  0.000000D+00  0.000000D+00  0.000000D+00  0.000000D+00  0.000000D+00
     36  0.000000D+00  0.000000D+00  0.000000D+00  0.000000D+00  0.000000D+00
     37  0.000000D+00  0.000000D+00  0.000000D+00  0.000000D+00  0.000000D+00
     38  0.000000D+00  0.000000D+00 -0.629031D-01  0.279116D-01  0.000000D+00
     39  0.000000D+00  0.000000D+00 -0.279116D-01 -0.629031D-01  0.000000D+00
     40 -0.369294D-01  0.000000D+00  0.000000D+00  0.000000D+00  0.000000D+00
     41  0.177373D-01  0.000000D+00  0.000000D+00  0.000000D+00  0.000000D+00
     42  0.111936D-01  0.000000D+00  0.000000D+00  0.000000D+00  0.000000D+00
     43 -0.279520D-01  0.000000D+00  0.000000D+00  0.000000D+00  0.000000D+00
     44  0.000000D+00  0.000000D+00  0.000000D+00  0.000000D+00  0.345828D+00
     45  0.000000D+00 -0.169351D-01  0.000000D+00  0.000000D+00  0.000000D+00
     46  0.000000D+00 -0.342286D-02  0.000000D+00  0.000000D+00  0.000000D+00
               11            12            13            14            15 
     11  0.000000D+00
     12 -0.151580D+01  0.000000D+00
     13  0.000000D+00  0.000000D+00  0.000000D+00
     14  0.000000D+00  0.000000D+00  0.000000D+00  0.000000D+00
     15  0.000000D+00  0.000000D+00  0.000000D+00  0.000000D+00  0.000000D+00
     16  0.000000D+00  0.000000D+00  0.000000D+00  0.000000D+00  0.000000D+00
     17  0.000000D+00  0.352567D-01  0.000000D+00  0.000000D+00  0.000000D+00
     18  0.000000D+00  0.000000D+00 -0.579077D+00 -0.141710D+01  0.000000D+00
     19  0.000000D+00  0.000000D+00  0.141710D+01 -0.579077D+00  0.000000D+00
     20  0.000000D+00  0.000000D+00  0.000000D+00  0.000000D+00 -0.520897D-01
     21  0.000000D+00  0.000000D+00  0.000000D+00  0.000000D+00 -0.709131D-01
     22  0.000000D+00  0.000000D+00  0.000000D+00  0.000000D+00  0.000000D+00
     23  0.000000D+00  0.000000D+00  0.000000D+00  0.000000D+00  0.000000D+00
     24  0.286807D+00  0.000000D+00  0.000000D+00  0.000000D+00  0.000000D+00
     25  0.000000D+00  0.126006D+00  0.000000D+00  0.000000D+00  0.000000D+00
     26  0.000000D+00  0.000000D+00  0.000000D+00  0.000000D+00 -0.133646D+01
     27  0.000000D+00  0.000000D+00  0.000000D+00  0.000000D+00 -0.264259D+00
     28 -0.201924D+00  0.000000D+00  0.000000D+00  0.000000D+00  0.000000D+00
     29  0.000000D+00 -0.332528D-01  0.000000D+00  0.000000D+00  0.000000D+00
     30 -0.238841D-01  0.000000D+00  0.000000D+00  0.000000D+00  0.000000D+00
     31  0.000000D+00 -0.228644D+00  0.000000D+00  0.000000D+00  0.000000D+00
     32  0.000000D+00  0.000000D+00  0.000000D+00  0.000000D+00  0.000000D+00
     33  0.000000D+00  0.000000D+00  0.000000D+00  0.000000D+00  0.000000D+00
     34  0.000000D+00  0.000000D+00  0.000000D+00  0.000000D+00  0.000000D+00
     35  0.000000D+00  0.000000D+00  0.000000D+00  0.000000D+00  0.000000D+00
     36  0.000000D+00  0.000000D+00  0.327119D-01  0.562213D-01  0.000000D+00
     37  0.000000D+00  0.000000D+00 -0.562213D-01  0.327119D-01  0.000000D+00
     38  0.000000D+00  0.000000D+00  0.000000D+00  0.000000D+00  0.000000D+00
     39  0.000000D+00  0.000000D+00  0.000000D+00  0.000000D+00  0.000000D+00
     40  0.000000D+00  0.000000D+00  0.000000D+00  0.000000D+00 -0.850964D-01
     41  0.000000D+00  0.000000D+00  0.000000D+00  0.000000D+00  0.153148D+00
     42  0.000000D+00  0.000000D+00  0.000000D+00  0.000000D+00 -0.131897D-01
     43  0.000000D+00  0.000000D+00  0.000000D+00  0.000000D+00 -0.551001D-01
     44  0.000000D+00  0.475579D+00  0.000000D+00  0.000000D+00  0.000000D+00
     45  0.350566D-01  0.000000D+00  0.000000D+00  0.000000D+00  0.000000D+00
     46 -0.120080D-01  0.000000D+00  0.000000D+00  0.000000D+00  0.000000D+00
               16            17            18            19            20 
     16  0.000000D+00
     17  0.000000D+00  0.000000D+00
     18  0.000000D+00  0.000000D+00  0.000000D+00
     19  0.000000D+00  0.000000D+00  0.000000D+00  0.000000D+00
     20  0.709131D-01  0.000000D+00  0.000000D+00  0.000000D+00  0.000000D+00
     21 -0.520897D-01  0.000000D+00  0.000000D+00  0.000000D+00  0.000000D+00
     22  0.000000D+00  0.000000D+00  0.000000D+00  0.000000D+00  0.126907D+01
     23  0.000000D+00  0.000000D+00  0.000000D+00  0.000000D+00  0.146799D+01
     24  0.000000D+00  0.201096D+01  0.000000D+00  0.000000D+00  0.000000D+00
     25  0.000000D+00  0.000000D+00  0.000000D+00  0.000000D+00  0.000000D+00
     26 -0.264259D+00  0.000000D+00  0.000000D+00  0.000000D+00  0.000000D+00
     27  0.133646D+01  0.000000D+00  0.000000D+00  0.000000D+00  0.000000D+00
     28  0.000000D+00 -0.732056D+00  0.000000D+00  0.000000D+00  0.000000D+00
     29  0.000000D+00  0.000000D+00  0.000000D+00  0.000000D+00  0.000000D+00
     30  0.000000D+00  0.174894D+00  0.000000D+00  0.000000D+00  0.000000D+00
     31  0.000000D+00  0.000000D+00  0.000000D+00  0.000000D+00  0.000000D+00
     32  0.000000D+00  0.000000D+00  0.000000D+00  0.000000D+00  0.491905D-01
     33  0.000000D+00  0.000000D+00  0.000000D+00  0.000000D+00  0.345640D+00
     34  0.000000D+00  0.000000D+00 -0.983202D-03  0.827796D-02  0.000000D+00
     35  0.000000D+00  0.000000D+00  0.827796D-02  0.983202D-03  0.000000D+00
     36  0.000000D+00  0.000000D+00  0.000000D+00  0.000000D+00  0.000000D+00
     37  0.000000D+00  0.000000D+00  0.000000D+00  0.000000D+00  0.000000D+00
     38  0.000000D+00  0.000000D+00  0.000000D+00  0.000000D+00 -0.317088D+00
     39  0.000000D+00  0.000000D+00  0.000000D+00  0.000000D+00 -0.137907D+00
     40 -0.153148D+00  0.000000D+00  0.000000D+00  0.000000D+00  0.000000D+00
     41 -0.850964D-01  0.000000D+00  0.000000D+00  0.000000D+00  0.000000D+00
     42  0.551001D-01  0.000000D+00  0.000000D+00  0.000000D+00  0.000000D+00
     43 -0.131897D-01  0.000000D+00  0.000000D+00  0.000000D+00  0.000000D+00
     44  0.000000D+00  0.000000D+00  0.000000D+00  0.000000D+00  0.000000D+00
     45  0.000000D+00 -0.853277D-01  0.000000D+00  0.000000D+00  0.000000D+00
     46  0.000000D+00 -0.130395D+00  0.000000D+00  0.000000D+00  0.000000D+00
               21            22            23            24            25 
     21  0.000000D+00
     22 -0.146799D+01  0.000000D+00
     23  0.126907D+01  0.000000D+00  0.000000D+00
     24  0.000000D+00  0.000000D+00  0.000000D+00  0.000000D+00
     25  0.000000D+00  0.000000D+00  0.000000D+00  0.180629D+01  0.000000D+00
     26  0.000000D+00  0.204198D+00 -0.457731D+00  0.000000D+00  0.000000D+00
     27  0.000000D+00 -0.457731D+00 -0.204198D+00  0.000000D+00  0.000000D+00
     28  0.000000D+00  0.000000D+00  0.000000D+00  0.000000D+00  0.122627D+01
     29  0.000000D+00  0.000000D+00  0.000000D+00 -0.393149D+00  0.000000D+00
     30  0.000000D+00  0.000000D+00  0.000000D+00  0.000000D+00  0.593089D+00
     31  0.000000D+00  0.000000D+00  0.000000D+00 -0.477052D-01  0.000000D+00
     32  0.345640D+00  0.000000D+00  0.000000D+00  0.000000D+00  0.000000D+00
     33 -0.491905D-01  0.000000D+00  0.000000D+00  0.000000D+00  0.000000D+00
     34  0.000000D+00  0.000000D+00  0.000000D+00  0.000000D+00  0.000000D+00
     35  0.000000D+00  0.000000D+00  0.000000D+00  0.000000D+00  0.000000D+00
     36  0.000000D+00  0.000000D+00  0.000000D+00  0.000000D+00  0.000000D+00
     37  0.000000D+00  0.000000D+00  0.000000D+00  0.000000D+00  0.000000D+00
     38  0.137907D+00  0.000000D+00  0.000000D+00  0.000000D+00  0.000000D+00
     39 -0.317088D+00  0.000000D+00  0.000000D+00  0.000000D+00  0.000000D+00
     40  0.000000D+00 -0.128894D+00  0.374506D-01  0.000000D+00  0.000000D+00
     41  0.000000D+00 -0.374506D-01 -0.128894D+00  0.000000D+00  0.000000D+00
     42  0.000000D+00 -0.879003D-01 -0.434798D-01  0.000000D+00  0.000000D+00
     43  0.000000D+00  0.434798D-01 -0.879003D-01  0.000000D+00  0.000000D+00
     44  0.000000D+00  0.000000D+00  0.000000D+00  0.318901D+00  0.000000D+00
     45  0.000000D+00  0.000000D+00  0.000000D+00  0.000000D+00  0.105104D+00
     46  0.000000D+00  0.000000D+00  0.000000D+00  0.000000D+00 -0.189020D+00
               26            27            28            29            30 
     26  0.000000D+00
     27  0.000000D+00  0.000000D+00
     28  0.000000D+00  0.000000D+00  0.000000D+00
     29  0.000000D+00  0.000000D+00  0.104536D+01  0.000000D+00
     30  0.000000D+00  0.000000D+00  0.000000D+00 -0.121421D+01  0.000000D+00
     31  0.000000D+00  0.000000D+00  0.826078D+00  0.000000D+00  0.650524D+00
     32  0.592043D+00 -0.181173D+00  0.000000D+00  0.000000D+00  0.000000D+00
     33  0.181173D+00  0.592043D+00  0.000000D+00  0.000000D+00  0.000000D+00
     34  0.000000D+00  0.000000D+00  0.000000D+00  0.000000D+00  0.000000D+00
     35  0.000000D+00  0.000000D+00  0.000000D+00  0.000000D+00  0.000000D+00
     36  0.000000D+00  0.000000D+00  0.000000D+00  0.000000D+00  0.000000D+00
     37  0.000000D+00  0.000000D+00  0.000000D+00  0.000000D+00  0.000000D+00
     38  0.121960D-01  0.434044D+00  0.000000D+00  0.000000D+00  0.000000D+00
     39  0.434044D+00 -0.121960D-01  0.000000D+00  0.000000D+00  0.000000D+00
     40  0.000000D+00  0.000000D+00  0.000000D+00  0.000000D+00  0.000000D+00
     41  0.000000D+00  0.000000D+00  0.000000D+00  0.000000D+00  0.000000D+00
     42  0.000000D+00  0.000000D+00  0.000000D+00  0.000000D+00  0.000000D+00
     43  0.000000D+00  0.000000D+00  0.000000D+00  0.000000D+00  0.000000D+00
     44  0.000000D+00  0.000000D+00  0.227289D+00  0.000000D+00  0.798692D+00
     45  0.000000D+00  0.000000D+00  0.000000D+00  0.372683D+00  0.000000D+00
     46  0.000000D+00  0.000000D+00  0.000000D+00  0.394035D-01  0.000000D+00
               31            32            33            34            35 
     31  0.000000D+00
     32  0.000000D+00  0.000000D+00
     33  0.000000D+00  0.000000D+00  0.000000D+00
     34  0.000000D+00  0.000000D+00  0.000000D+00  0.000000D+00
     35  0.000000D+00  0.000000D+00  0.000000D+00  0.000000D+00  0.000000D+00
     36  0.000000D+00  0.000000D+00  0.000000D+00  0.363535D+00 -0.138184D+01
     37  0.000000D+00  0.000000D+00  0.000000D+00 -0.138184D+01 -0.363535D+00
     38  0.000000D+00  0.000000D+00  0.000000D+00  0.000000D+00  0.000000D+00
     39  0.000000D+00  0.000000D+00  0.000000D+00  0.000000D+00  0.000000D+00
     40  0.000000D+00  0.109523D+01 -0.704250D+00  0.000000D+00  0.000000D+00
     41  0.000000D+00 -0.704250D+00 -0.109523D+01  0.000000D+00  0.000000D+00
     42  0.000000D+00  0.168103D+00 -0.639059D+00  0.000000D+00  0.000000D+00
     43  0.000000D+00 -0.639059D+00 -0.168103D+00  0.000000D+00  0.000000D+00
     44  0.000000D+00  0.000000D+00  0.000000D+00  0.000000D+00  0.000000D+00
     45  0.887723D+00  0.000000D+00  0.000000D+00  0.000000D+00  0.000000D+00
     46  0.802301D+00  0.000000D+00  0.000000D+00  0.000000D+00  0.000000D+00
               36            37            38            39            40 
     36  0.000000D+00
     37  0.000000D+00  0.000000D+00
     38  0.000000D+00  0.000000D+00  0.000000D+00
     39  0.000000D+00  0.000000D+00  0.000000D+00  0.000000D+00
     40  0.000000D+00  0.000000D+00  0.215545D+00 -0.193079D+00  0.000000D+00
     41  0.000000D+00  0.000000D+00  0.193079D+00  0.215545D+00  0.000000D+00
     42  0.000000D+00  0.000000D+00 -0.136242D+01 -0.158768D-01  0.000000D+00
     43  0.000000D+00  0.000000D+00  0.158768D-01 -0.136242D+01  0.000000D+00
     44  0.000000D+00  0.000000D+00  0.000000D+00  0.000000D+00  0.000000D+00
     45  0.000000D+00  0.000000D+00  0.000000D+00  0.000000D+00  0.000000D+00
     46  0.000000D+00  0.000000D+00  0.000000D+00  0.000000D+00  0.000000D+00
               41            42            43            44            45 
     41  0.000000D+00
     42  0.000000D+00  0.000000D+00
     43  0.000000D+00  0.000000D+00  0.000000D+00
     44  0.000000D+00  0.000000D+00  0.000000D+00  0.000000D+00
     45  0.000000D+00  0.000000D+00  0.000000D+00 -0.913675D+00  0.000000D+00
     46  0.000000D+00  0.000000D+00  0.000000D+00  0.106511D+01  0.000000D+00
               46 
     46  0.000000D+00
 All to All state transition transition dipole moments (Au):
     state I   state J         X           Y           Z
         0        0          0.3956021169697E-15      -0.2308879399495E-15       0.3096700232923E-13
         0        1          0.2121940615958E-14      -0.1817559463049E-14       -2.032325902879    
         1        1         -0.3877574120414E-14       0.1359017155722E-14       0.6951279005132E-13
         0        2         -0.2456451139518E-14      -0.4342969167734E-15       0.2240248006681E-15
         1        2          0.9122382533090E-15      -0.2718659332003E-14       -2.180533560299    
         2        2         -0.5526443773167E-14      -0.1496836321843E-14      -0.5822432680633E-13
         0        3          0.2250227048301E-11      -0.7119038535238E-12       0.8078844241437    
         1        3          0.1756013959032E-14      -0.5031547532125E-15       0.5437068105097E-13
         2        3          0.2215006184102E-11      -0.7008265149509E-12       -3.242982243990    
         3        3          0.1865419795656E-14      -0.6005905566687E-15       0.5595903401591E-13
         0        4         -0.4386086315564           -1.382153090059           0.2257587090508E-14
         1        4          0.5661328064379E-14       0.9803672485948E-14      -0.2206068264601E-14
         2        4         -0.4317426218287           -1.360516770391          -0.3899931120884E-14
[...]

 CI (t =     24.03887 fs)
 Step =                 9938
 Current electric field (a.u.):
   Ex=  0.0000000   Ey=  0.0000000   Ez=  0.0019329
 CI Dipole moment (au):
    X=     0.1224422485E-14    Y=     0.5749876768E-14    Z=     0.6423523280E-01 Tot =    0.6423523280E-01
 Energy =       -1.004581339384    

 CI (t =     24.04129 fs)
 Step =                 9939
 Current electric field (a.u.):
   Ex=  0.0000000   Ey=  0.0000000   Ez=  0.0019163
 CI Dipole moment (au):
    X=     0.1436398168E-14    Y=     0.4792124247E-14    Z=     0.6367990888E-01 Tot =    0.6367990888E-01
 Energy =       -1.004582406339    

 CI (t =     24.04371 fs)
 Step =                 9940
 Current electric field (a.u.):
   Ex=  0.0000000   Ey=  0.0000000   Ez=  0.0018996
 CI Dipole moment (au):
    X=     0.1641459524E-14    Y=     0.3815806627E-14    Z=     0.6312186388E-01 Tot =    0.6312186388E-01
 Energy =       -1.004583469159    

 CI (t =     24.04613 fs)
 Step =                 9941
 Current electric field (a.u.):
   Ex=  0.0000000   Ey=  0.0000000   Ez=  0.0018829
 CI Dipole moment (au):
    X=     0.1833115800E-14    Y=     0.2821351757E-14    Z=     0.6256112476E-01 Tot =    0.6256112476E-01
 Energy =       -1.004584527645    

 CI (t =     24.04855 fs)
 Step =                 9942
 Current electric field (a.u.):
   Ex=  0.0000000   Ey=  0.0000000   Ez=  0.0018660
 CI Dipole moment (au):
    X=     0.2004995661E-14    Y=     0.1809992594E-14    Z=     0.6199771807E-01 Tot =    0.6199771807E-01
 Energy =       -1.004585581605    

 CI (t =     24.05097 fs)
 Step =                 9943
 Current electric field (a.u.):
   Ex=  0.0000000   Ey=  0.0000000   Ez=  0.0018490
 CI Dipole moment (au):
    X=     0.2150921704E-14    Y=     0.7837034923E-15    Z=     0.6143167000E-01 Tot =    0.6143167000E-01
 Energy =       -1.004586630845    

 CI (t =     24.05339 fs)
 Step =                 9944
 Current electric field (a.u.):
   Ex=  0.0000000   Ey=  0.0000000   Ez=  0.0018320
 CI Dipole moment (au):
    X=     0.2264992820E-14    Y=    -0.2549747047E-15    Z=     0.6086300633E-01 Tot =    0.6086300633E-01
 Energy =       -1.004587675175    

 CI (t =     24.05580 fs)
 Step =                 9945
 Current electric field (a.u.):
   Ex=  0.0000000   Ey=  0.0000000   Ez=  0.0018148
 CI Dipole moment (au):
    X=     0.2341673813E-14    Y=    -0.1303192626E-14    Z=     0.6029175247E-01 Tot =    0.6029175247E-01
 Energy =       -1.004588714406    

 CI (t =     24.05822 fs)
 Step =                 9946
 Current electric field (a.u.):
   Ex=  0.0000000   Ey=  0.0000000   Ez=  0.0017976
 CI Dipole moment (au):
    X=     0.2375889822E-14    Y=    -0.2358091775E-14    Z=     0.5971793344E-01 Tot =    0.5971793344E-01
 Energy =       -1.004589748350    

 CI (t =     24.06064 fs)
 Step =                 9947
 Current electric field (a.u.):
   Ex=  0.0000000   Ey=  0.0000000   Ez=  0.0017802
 CI Dipole moment (au):
    X=     0.2363121530E-14    Y=    -0.3417096987E-14    Z=     0.5914157391E-01 Tot =    0.5914157391E-01
 Energy =       -1.004590776822    

 CI (t =     24.06306 fs)
 Step =                 9948
 Current electric field (a.u.):
   Ex=  0.0000000   Ey=  0.0000000   Ez=  0.0017628
 CI Dipole moment (au):
    X=     0.2299495962E-14    Y=    -0.4478154717E-14    Z=     0.5856269813E-01 Tot =    0.5856269813E-01
 Energy =       -1.004591799639    

 CI (t =     24.06548 fs)
 Step =                 9949
 Current electric field (a.u.):
   Ex=  0.0000000   Ey=  0.0000000   Ez=  0.0017453
 CI Dipole moment (au):
    X=     0.2181867357E-14    Y=    -0.5539878689E-14    Z=     0.5798133003E-01 Tot =    0.5798133003E-01
 Energy =       -1.004592816618    

 CI (t =     24.06790 fs)
 Step =                 9950
 Current electric field (a.u.):
   Ex=  0.0000000   Ey=  0.0000000   Ez=  0.0017277
 CI Dipole moment (au):
    X=     0.2007882904E-14    Y=    -0.6601579520E-14    Z=     0.5739749316E-01 Tot =    0.5739749316E-01
 Energy =       -1.004593827579    

 CI (t =     24.07032 fs)
 Step =                 9951
 Current electric field (a.u.):
   Ex=  0.0000000   Ey=  0.0000000   Ez=  0.0017100
 CI Dipole moment (au):
    X=     0.1776029308E-14    Y=    -0.7663173757E-14    Z=     0.5681121070E-01 Tot =    0.5681121070E-01
 Energy =       -1.004594832344    

 CI (t =     24.07274 fs)
 Step =                 9952
 Current electric field (a.u.):
   Ex=  0.0000000   Ey=  0.0000000   Ez=  0.0016922
 CI Dipole moment (au):
    X=     0.1485657790E-14    Y=    -0.8724987310E-14    Z=     0.5622250551E-01 Tot =    0.5622250551E-01
 Energy =       -1.004595830735    

 CI (t =     24.07516 fs)
 Step =                 9953
 Current electric field (a.u.):
   Ex=  0.0000000   Ey=  0.0000000   Ez=  0.0016743
 CI Dipole moment (au):
    X=     0.1136987190E-14    Y=    -0.9787485432E-14    Z=     0.5563140006E-01 Tot =    0.5563140006E-01
 Energy =       -1.004596822578    

 CI (t =     24.07757 fs)
 Step =                 9954
 Current electric field (a.u.):
   Ex=  0.0000000   Ey=  0.0000000   Ez=  0.0016563
 CI Dipole moment (au):
    X=     0.7310868130E-15    Y=    -0.1085097321E-13    Z=     0.5503791651E-01 Tot =    0.5503791651E-01
 Energy =       -1.004597807699    

 CI (t =     24.07999 fs)
 Step =                 9955
 Current electric field (a.u.):
   Ex=  0.0000000   Ey=  0.0000000   Ez=  0.0016383
 CI Dipole moment (au):
    X=     0.2698424210E-15    Y=    -0.1191531527E-13    Z=     0.5444207670E-01 Tot =    0.5444207670E-01
 Energy =       -1.004598785926    

 CI (t =     24.08241 fs)
 Step =                 9956
 Current electric field (a.u.):
   Ex=  0.0000000   Ey=  0.0000000   Ez=  0.0016201
 CI Dipole moment (au):
    X=    -0.2440900842E-15    Y=    -0.1297972017E-13    Z=     0.5384390210E-01 Tot =    0.5384390210E-01
 Energy =       -1.004599757089    

 CI (t =     24.08483 fs)
 Step =                 9957
 Current electric field (a.u.):
   Ex=  0.0000000   Ey=  0.0000000   Ez=  0.0016019
 CI Dipole moment (au):
    X=    -0.8073382903E-15    Y=    -0.1404262430E-13    Z=     0.5324341390E-01 Tot =    0.5324341390E-01
 Energy =       -1.004600721019    

 CI (t =     24.08725 fs)
 Step =                 9958
 Current electric field (a.u.):
   Ex=  0.0000000   Ey=  0.0000000   Ez=  0.0015836
 CI Dipole moment (au):
    X=    -0.1415869562E-14    Y=    -0.1510169387E-13    Z=     0.5264063297E-01 Tot =    0.5264063297E-01
 Energy =       -1.004601677549    

 CI (t =     24.08967 fs)
 Step =                 9959
 Current electric field (a.u.):
   Ex=  0.0000000   Ey=  0.0000000   Ez=  0.0015652
 CI Dipole moment (au):
    X=    -0.2065046376E-14    Y=    -0.1615394418E-13    Z=     0.5203557986E-01 Tot =    0.5203557986E-01
 Energy =       -1.004602626515    

 CI (t =     24.09209 fs)
 Step =                 9960
 Current electric field (a.u.):
   Ex=  0.0000000   Ey=  0.0000000   Ez=  0.0015468
 CI Dipole moment (au):
    X=    -0.2749678646E-14    Y=    -0.1719595641E-13    Z=     0.5142827485E-01 Tot =    0.5142827485E-01
 Energy =       -1.004603567752    

 CI (t =     24.09451 fs)
 Step =                 9961
 Current electric field (a.u.):
   Ex=  0.0000000   Ey=  0.0000000   Ez=  0.0015282
 CI Dipole moment (au):
    X=    -0.3464072785E-14    Y=    -0.1822415611E-13    Z=     0.5081873793E-01 Tot =    0.5081873793E-01
 Energy =       -1.004604501099    

 CI (t =     24.09693 fs)
 Step =                 9962
 Current electric field (a.u.):
   Ex=  0.0000000   Ey=  0.0000000   Ez=  0.0015096
 CI Dipole moment (au):
    X=    -0.4202078984E-14    Y=    -0.1923510761E-13    Z=     0.5020698881E-01 Tot =    0.5020698881E-01
 Energy =       -1.004605426394    

 CI (t =     24.09934 fs)
 Step =                 9963
 Current electric field (a.u.):
   Ex=  0.0000000   Ey=  0.0000000   Ez=  0.0014909
 CI Dipole moment (au):
    X=    -0.4957139552E-14    Y=    -0.2022577613E-13    Z=     0.4959304695E-01 Tot =    0.4959304695E-01
 Energy =       -1.004606343478    

 CI (t =     24.10176 fs)
 Step =                 9964
 Current electric field (a.u.):
   Ex=  0.0000000   Ey=  0.0000000   Ez=  0.0014721
 CI Dipole moment (au):
    X=    -0.5722341941E-14    Y=    -0.2119371474E-13    Z=     0.4897693153E-01 Tot =    0.4897693153E-01
 Energy =       -1.004607252195    

 CI (t =     24.10418 fs)
 Step =                 9965
 Current electric field (a.u.):
   Ex=  0.0000000   Ey=  0.0000000   Ez=  0.0014532
 CI Dipole moment (au):
    X=    -0.6490480111E-14    Y=    -0.2213714539E-13    Z=     0.4835866152E-01 Tot =    0.4835866152E-01
 Energy =       -1.004608152388    

 CI (t =     24.10660 fs)
 Step =                 9966
 Current electric field (a.u.):
   Ex=  0.0000000   Ey=  0.0000000   Ez=  0.0014343
 CI Dipole moment (au):
    X=    -0.7254127170E-14    Y=    -0.2305492123E-13    Z=     0.4773825564E-01 Tot =    0.4773825564E-01
 Energy =       -1.004609043903    

 CI (t =     24.10902 fs)
 Step =                 9967
 Current electric field (a.u.):
   Ex=  0.0000000   Ey=  0.0000000   Ez=  0.0014153
 CI Dipole moment (au):
    X=    -0.8005720879E-14    Y=    -0.2394637627E-13    Z=     0.4711573239E-01 Tot =    0.4711573239E-01
 Energy =       -1.004609926587    

 CI (t =     24.11144 fs)
 Step =                 9968
 Current electric field (a.u.):
   Ex=  0.0000000   Ey=  0.0000000   Ez=  0.0013962
 CI Dipole moment (au):
    X=    -0.8737661815E-14    Y=    -0.2481108735E-13    Z=     0.4649111005E-01 Tot =    0.4649111005E-01
 Energy =       -1.004610800288    

 CI (t =     24.11386 fs)
 Step =                 9969
 Current electric field (a.u.):
   Ex=  0.0000000   Ey=  0.0000000   Ez=  0.0013771
 CI Dipole moment (au):
    X=    -0.9442422082E-14    Y=    -0.2564858778E-13    Z=     0.4586440672E-01 Tot =    0.4586440672E-01
 Energy =       -1.004611664856    

 CI (t =     24.11628 fs)
 Step =                 9970
 Current electric field (a.u.):
   Ex=  0.0000000   Ey=  0.0000000   Ez=  0.0013578
 CI Dipole moment (au):
    X=    -0.1011266071E-13    Y=    -0.2645807985E-13    Z=     0.4523564031E-01 Tot =    0.4523564031E-01
 Energy =       -1.004612520143    

 CI (t =     24.11870 fs)
 Step =                 9971
 Current electric field (a.u.):
   Ex=  0.0000000   Ey=  0.0000000   Ez=  0.0013385
 CI Dipole moment (au):
    X=    -0.1074134060E-13    Y=    -0.2723819385E-13    Z=     0.4460482854E-01 Tot =    0.4460482854E-01
 Energy =       -1.004613366001    

 CI (t =     24.12111 fs)
 Step =                 9972
 Current electric field (a.u.):
   Ex=  0.0000000   Ey=  0.0000000   Ez=  0.0013192
 CI Dipole moment (au):
    X=    -0.1132184119E-13    Y=    -0.2798683379E-13    Z=     0.4397198900E-01 Tot =    0.4397198900E-01
 Energy =       -1.004614202286    

 CI (t =     24.12353 fs)
 Step =                 9973
 Current electric field (a.u.):
   Ex=  0.0000000   Ey=  0.0000000   Ez=  0.0012997
 CI Dipole moment (au):
    X=    -0.1184806131E-13    Y=    -0.2870113598E-13    Z=     0.4333713910E-01 Tot =    0.4333713910E-01
 Energy =       -1.004615028852    

 CI (t =     24.12595 fs)
 Step =                 9974
 Current electric field (a.u.):
   Ex=  0.0000000   Ey=  0.0000000   Ez=  0.0012802
 CI Dipole moment (au):
    X=    -0.1231450740E-13    Y=    -0.2937754845E-13    Z=     0.4270029614E-01 Tot =    0.4270029614E-01
 Energy =       -1.004615845557    

 CI (t =     24.12837 fs)
 Step =                 9975
 Current electric field (a.u.):
   Ex=  0.0000000   Ey=  0.0000000   Ez=  0.0012607
 CI Dipole moment (au):
    X=    -0.1271636400E-13    Y=    -0.3001201952E-13    Z=     0.4206147730E-01 Tot =    0.4206147730E-01
 Energy =       -1.004616652259    

 CI (t =     24.13079 fs)
 Step =                 9976
 Current electric field (a.u.):
   Ex=  0.0000000   Ey=  0.0000000   Ez=  0.0012410
 CI Dipole moment (au):
    X=    -0.1304954505E-13    Y=    -0.3060026649E-13    Z=     0.4142069965E-01 Tot =    0.4142069965E-01
 Energy =       -1.004617448818    

 CI (t =     24.13321 fs)
 Step =                 9977
 Current electric field (a.u.):
   Ex=  0.0000000   Ey=  0.0000000   Ez=  0.0012213
 CI Dipole moment (au):
    X=    -0.1331072680E-13    Y=    -0.3113808236E-13    Z=     0.4077798019E-01 Tot =    0.4077798019E-01
 Energy =       -1.004618235095    

 CI (t =     24.13563 fs)
 Step =                 9978
 Current electric field (a.u.):
   Ex=  0.0000000   Ey=  0.0000000   Ez=  0.0012016
 CI Dipole moment (au):
    X=    -0.1349736457E-13    Y=    -0.3162163266E-13    Z=     0.4013333583E-01 Tot =    0.4013333583E-01
 Energy =       -1.004619010954    

 CI (t =     24.13805 fs)
 Step =                 9979
 Current electric field (a.u.):
   Ex=  0.0000000   Ey=  0.0000000   Ez=  0.0011817
 CI Dipole moment (au):
    X=    -0.1360769706E-13    Y=    -0.3204769641E-13    Z=     0.3948678344E-01 Tot =    0.3948678344E-01
 Energy =       -1.004619776258    

 CI (t =     24.14047 fs)
 Step =                 9980
 Current electric field (a.u.):
   Ex=  0.0000000   Ey=  0.0000000   Ez=  0.0011619
 CI Dipole moment (au):
    X=    -0.1364074249E-13    Y=    -0.3241381439E-13    Z=     0.3883833984E-01 Tot =    0.3883833984E-01
 Energy =       -1.004620530872    

 CI (t =     24.14288 fs)
 Step =                 9981
 Current electric field (a.u.):
   Ex=  0.0000000   Ey=  0.0000000   Ez=  0.0011419
 CI Dipole moment (au):
    X=    -0.1359629037E-13    Y=    -0.3271832366E-13    Z=     0.3818802185E-01 Tot =    0.3818802185E-01
 Energy =       -1.004621274663    

 CI (t =     24.14530 fs)
 Step =                 9982
 Current electric field (a.u.):
   Ex=  0.0000000   Ey=  0.0000000   Ez=  0.0011219
 CI Dipole moment (au):
    X=    -0.1347489229E-13    Y=    -0.3296027557E-13    Z=     0.3753584627E-01 Tot =    0.3753584627E-01
 Energy =       -1.004622007499    

 CI (t =     24.14772 fs)
 Step =                 9983
 Current electric field (a.u.):
   Ex=  0.0000000   Ey=  0.0000000   Ez=  0.0011018
 CI Dipole moment (au):
    X=    -0.1327785334E-13    Y=    -0.3313925409E-13    Z=     0.3688182991E-01 Tot =    0.3688182991E-01
 Energy =       -1.004622729250    

 CI (t =     24.15014 fs)
 Step =                 9984
 Current electric field (a.u.):
   Ex=  0.0000000   Ey=  0.0000000   Ez=  0.0010817
 CI Dipole moment (au):
    X=    -0.1300722427E-13    Y=    -0.3325512757E-13    Z=     0.3622598961E-01 Tot =    0.3622598961E-01
 Energy =       -1.004623439786    

 CI (t =     24.15256 fs)
 Step =                 9985
 Current electric field (a.u.):
   Ex=  0.0000000   Ey=  0.0000000   Ez=  0.0010616
 CI Dipole moment (au):
    X=    -0.1266579287E-13    Y=    -0.3330777767E-13    Z=     0.3556834227E-01 Tot =    0.3556834227E-01
 Energy =       -1.004624138979    

 CI (t =     24.15498 fs)
 Step =                 9986
 Current electric field (a.u.):
   Ex=  0.0000000   Ey=  0.0000000   Ez=  0.0010413
 CI Dipole moment (au):
    X=    -0.1225707145E-13    Y=    -0.3329685340E-13    Z=     0.3490890482E-01 Tot =    0.3490890482E-01
 Energy =       -1.004624826703    

 CI (t =     24.15740 fs)
 Step =                 9987
 Current electric field (a.u.):
   Ex=  0.0000000   Ey=  0.0000000   Ez=  0.0010210
 CI Dipole moment (au):
    X=    -0.1178527693E-13    Y=    -0.3322159369E-13    Z=     0.3424769427E-01 Tot =    0.3424769427E-01
 Energy =       -1.004625502832    

 CI (t =     24.15982 fs)
 Step =                 9988
 Current electric field (a.u.):
   Ex=  0.0000000   Ey=  0.0000000   Ez=  0.0010007
 CI Dipole moment (au):
    X=    -0.1125529947E-13    Y=    -0.3308075060E-13    Z=     0.3358472774E-01 Tot =    0.3358472774E-01
 Energy =       -1.004626167242    

 CI (t =     24.16224 fs)
 Step =                 9989
 Current electric field (a.u.):
   Ex=  0.0000000   Ey=  0.0000000   Ez=  0.0009803
 CI Dipole moment (au):
    X=    -0.1067265653E-13    Y=    -0.3287262890E-13    Z=     0.3292002245E-01 Tot =    0.3292002245E-01
 Energy =       -1.004626819811    

 CI (t =     24.16465 fs)
 Step =                 9990
 Current electric field (a.u.):
   Ex=  0.0000000   Ey=  0.0000000   Ez=  0.0009599
 CI Dipole moment (au):
    X=    -0.1004343031E-13    Y=    -0.3259523835E-13    Z=     0.3225359570E-01 Tot =    0.3225359570E-01
 Energy =       -1.004627460418    

 CI (t =     24.16707 fs)
 Step =                 9991
 Current electric field (a.u.):
   Ex=  0.0000000   Ey=  0.0000000   Ez=  0.0009394
 CI Dipole moment (au):
    X=    -0.9374188323E-14    Y=    -0.3224653639E-13    Z=     0.3158546498E-01 Tot =    0.3158546498E-01
 Energy =       -1.004628088943    

 CI (t =     24.16949 fs)
 Step =                 9992
 Current electric field (a.u.):
   Ex=  0.0000000   Ey=  0.0000000   Ez=  0.0009188
 CI Dipole moment (au):
    X=    -0.8671888600E-14    Y=    -0.3182472404E-13    Z=     0.3091564789E-01 Tot =    0.3091564789E-01
 Energy =       -1.004628705267    

 CI (t =     24.17191 fs)
 Step =                 9993
 Current electric field (a.u.):
   Ex=  0.0000000   Ey=  0.0000000   Ez=  0.0008983
 CI Dipole moment (au):
    X=    -0.7943772938E-14    Y=    -0.3132854874E-13    Z=     0.3024416220E-01 Tot =    0.3024416220E-01
 Energy =       -1.004629309273    

 CI (t =     24.17433 fs)
 Step =                 9994
 Current electric field (a.u.):
   Ex=  0.0000000   Ey=  0.0000000   Ez=  0.0008776
 CI Dipole moment (au):
    X=    -0.7197252802E-14    Y=    -0.3075756656E-13    Z=     0.2957102586E-01 Tot =    0.2957102586E-01
 Energy =       -1.004629900846    

 CI (t =     24.17675 fs)
 Step =                 9995
 Current electric field (a.u.):
   Ex=  0.0000000   Ey=  0.0000000   Ez=  0.0008569
 CI Dipole moment (au):
    X=    -0.6439793315E-14    Y=    -0.3011232247E-13    Z=     0.2889625701E-01 Tot =    0.2889625701E-01
 Energy =       -1.004630479872    

 CI (t =     24.17917 fs)
 Step =                 9996
 Current electric field (a.u.):
   Ex=  0.0000000   Ey=  0.0000000   Ez=  0.0008362
 CI Dipole moment (au):
    X=    -0.5678800788E-14    Y=    -0.2939442054E-13    Z=     0.2821987398E-01 Tot =    0.2821987398E-01
 Energy =       -1.004631046239    

 CI (t =     24.18159 fs)
 Step =                 9997
 Current electric field (a.u.):
   Ex=  0.0000000   Ey=  0.0000000   Ez=  0.0008155
 CI Dipole moment (au):
    X=    -0.4921518515E-14    Y=    -0.2860647338E-13    Z=     0.2754189534E-01 Tot =    0.2754189534E-01
 Energy =       -1.004631599834    

 CI (t =     24.18401 fs)
 Step =                 9998
 Current electric field (a.u.):
   Ex=  0.0000000   Ey=  0.0000000   Ez=  0.0007946
 CI Dipole moment (au):
    X=    -0.4174934293E-14    Y=    -0.2775193988E-13    Z=     0.2686233989E-01 Tot =    0.2686233989E-01
 Energy =       -1.004632140548    

 CI (t =     24.18642 fs)
 Step =                 9999
 Current electric field (a.u.):
   Ex=  0.0000000   Ey=  0.0000000   Ez=  0.0007738
 CI Dipole moment (au):
    X=    -0.3445701437E-14    Y=    -0.2683487763E-13    Z=     0.2618122664E-01 Tot =    0.2618122664E-01
 Energy =       -1.004632668273    

 CI (t =     24.18884 fs)
 Step =                10000
 Current electric field (a.u.):
   Ex=  0.0000000   Ey=  0.0000000   Ez=  0.0007529
 CI Dipole moment (au):
    X=    -0.2740073262E-14    Y=    -0.2585965038E-13    Z=     0.2549857490E-01 Tot =    0.2549857490E-01
 Energy =       -1.004633182902    
 Leave Link  912 at Tue Dec 20 08:08:05 2016, MaxMem=  1610612736 cpu:             273.4 elap:              34.3
 (Enter /home1/gaussian/gdv/I03P/gdv/l9999.exe)

 This type of calculation cannot be archived.


 IF THERE IS ONE WAY BETTER THAN ANOTHER IT IS THE WAY OF NATURE.

                          -- ARISTOTLE
 Job cpu time:       0 days  0 hours  4 minutes 40.1 seconds.
 Elapsed time:       0 days  0 hours  0 minutes 35.1 seconds.
 File lengths (MBytes):  RWF=     13 Int=      2 D2E=      0 Chk=      1 Scr=      1
 Normal termination of Gaussian DV at Tue Dec 20 08:08:05 2016.
