 Entering Gaussian System, Link 0=gdv
 Input=h2+Az.gjf
 Output=h2+Az.log
 Initial command:
 /home1/gaussian/gdv/I03P/gdv/l1.exe "/state/partition1/597569.1.stf_r620.q/Gau-22295.inp" -scrdir="/state/partition1/597569.1.stf_r620.q/"
 Entering Link 1 = /home1/gaussian/gdv/I03P/gdv/l1.exe PID=     22296.
  
 Copyright (c) 1988,1990,1992,1993,1995,1998,2003,2009,2015,
            Gaussian, Inc.  All Rights Reserved.
  
 This is the private, development version of
 the Gaussian(R) DV system of programs. It is based on
 the Gaussian(R) 09 system (copyright 2009, Gaussian, Inc.),
 the Gaussian(R) 03 system (copyright 2003, Gaussian, Inc.),
 the Gaussian(R) 98 system (copyright 1998, Gaussian, Inc.),
 the Gaussian(R) 94 system (copyright 1995, Gaussian, Inc.),
 the Gaussian 92(TM) system (copyright 1992, Gaussian, Inc.),
 the Gaussian 90(TM) system (copyright 1990, Gaussian, Inc.),
 the Gaussian 88(TM) system (copyright 1988, Gaussian, Inc.),
 the Gaussian 86(TM) system (copyright 1986, Carnegie Mellon
 University), and the Gaussian 82(TM) system (copyright 1983,
 Carnegie Mellon University). Gaussian is a federally registered
 trademark of Gaussian, Inc.
  
 This software contains proprietary and confidential information,
 including trade secrets, belonging to Gaussian, Inc.
  
 This software is provided under written license and may be
 used, copied, transmitted, or stored only in accord with that
 written license.
  
 The following legend is applicable only to US Government
 contracts under FAR:
  
                    RESTRICTED RIGHTS LEGEND
  
 Use, reproduction and disclosure by the US Government is
 subject to restrictions as set forth in subparagraphs (a)
 and (c) of the Commercial Computer Software - Restricted
 Rights clause in FAR 52.227-19.
  
 Gaussian, Inc.
 340 Quinnipiac St., Bldg. 40, Wallingford CT 06492
  
  
 ---------------------------------------------------------------
 Warning -- This program may not be used in any manner that
 competes with the business of Gaussian, Inc. or will provide
 assistance to any competitor of Gaussian, Inc.  The licensee
 of this program is prohibited from giving any competitor of
 Gaussian, Inc. access to this program.  By using this program,
 the user acknowledges that Gaussian, Inc. is engaged in the
 business of creating and licensing software in the field of
 computational chemistry and represents and warrants to the
 licensee that it is not a competitor of Gaussian, Inc. and that
 it will not use this program in any manner prohibited above.
 ---------------------------------------------------------------
  

 Cite this work as:
 Gaussian Development Version, Revision I.03+,
 M. J. Frisch, G. W. Trucks, H. B. Schlegel, G. E. Scuseria, 
 M. A. Robb, J. R. Cheeseman, G. Scalmani, V. Barone, B. Mennucci, 
 G. A. Petersson, H. Nakatsuji, M. Caricato, X. Li, H. P. Hratchian, 
 J. Bloino, B. G. Janesko, A. F. Izmaylov, A. Marenich, F. Lipparini, 
 G. Zheng, J. L. Sonnenberg, W. Liang, M. Hada, M. Ehara, K. Toyota, 
 R. Fukuda, J. Hasegawa, M. Ishida, T. Nakajima, Y. Honda, O. Kitao, 
 H. Nakai, T. Vreven, K. Throssell, J. A. Montgomery, Jr., 
 J. E. Peralta, F. Ogliaro, M. Bearpark, J. J. Heyd, E. Brothers, 
 K. N. Kudin, V. N. Staroverov, T. Keith, R. Kobayashi, J. Normand, 
 K. Raghavachari, A. Rendell, J. C. Burant, S. S. Iyengar, J. Tomasi, 
 M. Cossi, N. Rega, J. M. Millam, M. Klene, J. E. Knox, J. B. Cross, 
 V. Bakken, C. Adamo, J. Jaramillo, R. Gomperts, R. E. Stratmann, 
 O. Yazyev, A. J. Austin, R. Cammi, C. Pomelli, J. W. Ochterski, 
 R. L. Martin, K. Morokuma, V. G. Zakrzewski, G. A. Voth, 
 P. Salvador, J. J. Dannenberg, S. Dapprich, P. V. Parandekar, 
 N. J. Mayhall, A. D. Daniels, O. Farkas, J. B. Foresman, 
 J. V. Ortiz, J. Cioslowski, and D. J. Fox, 
 Gaussian, Inc., Wallingford CT, 2014.
 
 *******************************************
 Gaussian DV:  ES64L-GDVRevI.03+  2-May-2015
                 20-Dec-2016 
 *******************************************
 %chk=h2+Az.chk
 %subst l912 /home2/plestran/devel/guga
 %mem=12GB
 %nproc=8
 Will use up to    8 processors via shared memory.
 ----------------------------------------------------------------------
 #p nonstd 1/38=1/1; 2/12=2,15=1,17=6,18=5,40=1/2; 3/5=16,6=1,7=10,25=2
 0,30=1/1,2,3,20; 4//1; 5/5=2,38=5/2; 8/6=3,9=120000,10=1/1,4; 9/1=1638
 4,5=1,7=46,14=1,15=10000,16=10000,17=2,33=0/12; 99/5=1,9=1/99;
 ----------------------------------------------------------------------
 1/38=1/1;
 2/12=2,15=1,17=6,18=5,40=1/2;
 3/5=16,6=1,7=10,25=20,30=1/1,2,3,20;
 4//1;
 5/5=2,38=5/2;
 8/6=3,9=120000,10=1/1,4;
 9/1=16384,5=1,7=46,14=1,15=10000,16=10000,17=2/12;
 99/5=1,9=1/99;
 Leave Link    1 at Tue Dec 20 08:03:42 2016, MaxMem=  1610612736 cpu:               0.2 elap:               0.0
 (Enter /home1/gaussian/gdv/I03P/gdv/l101.exe)
 ----------------------------------------------------------------------
 H2 TD-ROCIS polarizibility using 632.8 nm light (1.9593 eV) w/ 0.001 a
 .u. intensity (3.51E13 W/cm2) for Keldysh=1.927 Time Step = 0.1 au (0.
 0024 fs) for 1000 steps (~24 fs) Linear ramp for 1 cycle and then cons
 tant for rest of sim
 ----------------------------------------------------------------------
 Symbolic Z-matrix:
 Charge =  0 Multiplicity = 1
 H                     0.        0.        0.75 
 H                     0.        0.       -0.75 
 
 ITRead=  0  0
 MicOpt= -1 -1
 NAtoms=      2 NQM=        2 NQMF=       0 NMMI=      0 NMMIF=      0
                NMic=       0 NMicF=      0.
                    Isotopes and Nuclear Properties:
 (Nuclear quadrupole moments (NQMom) in fm**2, nuclear magnetic moments (NMagM)
  in nuclear magnetons)

  Atom         1           2
 IAtWgt=           1           1
 AtmWgt=   1.0078250   1.0078250
 NucSpn=           1           1
 AtZEff=   0.0000000   0.0000000
 NQMom=    0.0000000   0.0000000
 NMagM=    2.7928460   2.7928460
 AtZNuc=   1.0000000   1.0000000
 Leave Link  101 at Tue Dec 20 08:03:42 2016, MaxMem=  1610612736 cpu:               0.7 elap:               0.1
 (Enter /home1/gaussian/gdv/I03P/gdv/l202.exe)
                          Input orientation:                          
 ---------------------------------------------------------------------
 Center     Atomic      Atomic             Coordinates (Angstroms)
 Number     Number       Type             X           Y           Z
 ---------------------------------------------------------------------
      1          1           0        0.000000    0.000000    0.750000
      2          1           0        0.000000    0.000000   -0.750000
 ---------------------------------------------------------------------
 Symmetry turned off by external request.
 Stoichiometry    H2
 Framework group  D*H[C*(H.H)]
 Deg. of freedom     1
 Full point group                 D*H     NOp   8
 Rotational constants (GHZ):      0.0000000    445.7378706    445.7378706
 Leave Link  202 at Tue Dec 20 08:03:42 2016, MaxMem=  1610612736 cpu:               0.2 elap:               0.0
 (Enter /home1/gaussian/gdv/I03P/gdv/l301.exe)
 Standard basis: Aug-CC-pVTZ (5D, 7F)
 Ernie: Thresh=  0.10000D-02 Tol=  0.10000D-05 Strict=F.
    46 basis functions,    54 primitive gaussians,    50 cartesian basis functions
     1 alpha electrons        1 beta electrons
       nuclear repulsion energy         0.3527848073 Hartrees.
 IExCor=    0 DFT=F Ex=HF Corr=None ExCW=0 ScaHFX=  1.000000
 ScaDFX=  1.000000  1.000000  1.000000  1.000000 ScalE2=  1.000000  1.000000
 IRadAn=      0 IRanWt=     -1 IRanGd=            0 ICorTp=0 IEmpDi=  4
 NAtoms=    2 NActive=    2 NUniq=    2 SFac= 1.00D+00 NAtFMM=   60 NAOKFM=F Big=F
 Integral buffers will be    131072 words long.
 Regular integral format.
 Two-electron integral symmetry is turned off.
 Leave Link  301 at Tue Dec 20 08:03:42 2016, MaxMem=  1610612736 cpu:               0.6 elap:               0.1
 (Enter /home1/gaussian/gdv/I03P/gdv/l302.exe)
 NPDir=0 NMtPBC=     1 NCelOv=     1 NCel=       1 NClECP=     1 NCelD=      1
         NCelK=      1 NCelE2=     1 NClLst=     1 CellRange=     0.0.
 One-electron integrals computed using PRISM.
 One-electron integral symmetry used in STVInt
 NBasis=    46 RedAO= T EigKep=  1.54D-03  NBF=    46
 NBsUse=    46 1.00D-06 EigRej= -1.00D+00 NBFU=    46
 Leave Link  302 at Tue Dec 20 08:03:42 2016, MaxMem=  1610612736 cpu:               1.0 elap:               0.1
 (Enter /home1/gaussian/gdv/I03P/gdv/l303.exe)
 DipDrv:  MaxL=1.
 Leave Link  303 at Tue Dec 20 08:03:42 2016, MaxMem=  1610612736 cpu:               0.1 elap:               0.0
 (Enter /home1/gaussian/gdv/I03P/gdv/l320.exe)
 Enter DskPsm, NBasis=  46 NBas6D=  50 NShell=  18 IDoSP=4.
 Out2e will use a cutoff of  1.00D-10
 FoFCou: FMM=F IPFlag=           0 FMFlag=           0 FMFlg1=           0
         NFxFlg=           0 DoJE=F BraDBF=F KetDBF=F FulRan=T
         wScrn=  0.000000 ICntrl=       600 IOpCl=  9 I1Cent=           0 NGrid=           0
         NMat0=    0 NMatS0=      0 NMatT0=    0 NMatD0=    0 NMtDS0=    0 NMtDT0=    0
 Symmetry not used in FoFCou.
       129929 integrals produced for a total of       129929.
 Leave Link  320 at Tue Dec 20 08:03:42 2016, MaxMem=  1610612736 cpu:               1.0 elap:               0.1
 (Enter /home1/gaussian/gdv/I03P/gdv/l401.exe)
 ExpMin= 2.53D-02 ExpMax= 3.39D+01 ExpMxC= 3.39D+01 IAcc=3 IRadAn=         5 AccDes= 0.00D+00
 Harris functional with IExCor=  205 and IRadAn=       5 diagonalized for initial guess.
 HarFok:  IExCor=  205 AccDes= 0.00D+00 IRadAn=         5 IDoV= 1 UseB2=F ITyADJ=14
 ICtDFT=  3500011 ScaDFX=  1.000000  1.000000  1.000000  1.000000
 FoFCou: FMM=F IPFlag=           0 FMFlag=      100000 FMFlg1=           0
         NFxFlg=           0 DoJE=T BraDBF=F KetDBF=T FulRan=T
         wScrn=  0.000000 ICntrl=       500 IOpCl=  0 I1Cent=   200000004 NGrid=           0
         NMat0=    1 NMatS0=      1 NMatT0=    0 NMatD0=    1 NMtDS0=    0 NMtDT0=    0
 Symmetry not used in FoFCou.
 Harris En= -1.07292250501879    
 JPrj=0 DoOrth=F DoCkMO=F.
 Leave Link  401 at Tue Dec 20 08:03:43 2016, MaxMem=  1610612736 cpu:               1.5 elap:               0.2
 (Enter /home1/gaussian/gdv/I03P/gdv/l502.exe)
 Keep R1 ints in memory in canonical form, NReq=2233588.
 FoFCou: FMM=F IPFlag=           0 FMFlag=           0 FMFlg1=           0
         NFxFlg=           0 DoJE=F BraDBF=F KetDBF=F FulRan=T
         wScrn=  0.000000 ICntrl=       600 IOpCl=  0 I1Cent=           0 NGrid=           0
         NMat0=    1 NMatS0=   1081 NMatT0=    0 NMatD0=    1 NMtDS0=    0 NMtDT0=    0
 Symmetry not used in FoFCou.
 Two-electron integral symmetry not used.
 Closed shell SCF:
 Using DIIS extrapolation, IDIIS=  1040.
 NGot=  1610612736 LenX=  1610022043 LenY=  1610019102
 Requested convergence on RMS density matrix=1.00D-08 within 128 cycles.
 Requested convergence on MAX density matrix=1.00D-06.
 Requested convergence on             energy=1.00D-06.
 No special actions if energy rises.

 Cycle   1  Pass 1  IDiag  1:
 E= -1.00325112513280    
 DIIS: error= 9.81D-03 at cycle   1 NSaved=   1.
 NSaved= 1 IEnMin= 1 EnMin= -1.00325112513280     IErMin= 1 ErrMin= 9.81D-03
 ErrMax= 9.81D-03  0.00D+00 EMaxC= 1.00D-01 BMatC= 1.01D-03 BMatP= 1.01D-03
 IDIUse=3 WtCom= 9.02D-01 WtEn= 9.81D-02
 Coeff-Com:  0.100D+01
 Coeff-En:   0.100D+01
 Coeff:      0.100D+01
 Gap=     0.477 Goal=   None    Shift=    0.000
 GapD=    0.477 DampG=2.000 DampE=1.000 DampFc=2.0000 IDamp=-1.
 RMSDP=4.67D-04 MaxDP=5.34D-03              OVMax= 2.07D-02

 Cycle   2  Pass 1  IDiag  1:
 E= -1.00458877810640     Delta-E=       -0.001337652974 Rises=F Damp=F
 DIIS: error= 1.50D-03 at cycle   2 NSaved=   2.
 NSaved= 2 IEnMin= 2 EnMin= -1.00458877810640     IErMin= 2 ErrMin= 1.50D-03
 ErrMax= 1.50D-03  0.00D+00 EMaxC= 1.00D-01 BMatC= 2.86D-05 BMatP= 1.01D-03
 IDIUse=3 WtCom= 9.85D-01 WtEn= 1.50D-02
 Coeff-Com: -0.177D+00 0.118D+01
 Coeff-En:   0.000D+00 0.100D+01
 Coeff:     -0.175D+00 0.117D+01
 Gap=     0.454 Goal=   None    Shift=    0.000
 RMSDP=1.49D-04 MaxDP=2.28D-03 DE=-1.34D-03 OVMax= 5.69D-03

 Cycle   3  Pass 1  IDiag  1:
 E= -1.00465017983750     Delta-E=       -0.000061401731 Rises=F Damp=F
 DIIS: error= 2.11D-04 at cycle   3 NSaved=   3.
 NSaved= 3 IEnMin= 3 EnMin= -1.00465017983750     IErMin= 3 ErrMin= 2.11D-04
 ErrMax= 2.11D-04  0.00D+00 EMaxC= 1.00D-01 BMatC= 3.67D-07 BMatP= 2.86D-05
 IDIUse=3 WtCom= 9.98D-01 WtEn= 2.11D-03
 Coeff-Com:  0.476D-01-0.353D+00 0.131D+01
 Coeff-En:   0.000D+00 0.000D+00 0.100D+01
 Coeff:      0.475D-01-0.352D+00 0.130D+01
 Gap=     0.454 Goal=   None    Shift=    0.000
 RMSDP=2.70D-05 MaxDP=4.05D-04 DE=-6.14D-05 OVMax= 9.50D-04

 Cycle   4  Pass 1  IDiag  1:
 E= -1.00465132668484     Delta-E=       -0.000001146847 Rises=F Damp=F
 DIIS: error= 1.03D-05 at cycle   4 NSaved=   4.
 NSaved= 4 IEnMin= 4 EnMin= -1.00465132668484     IErMin= 4 ErrMin= 1.03D-05
 ErrMax= 1.03D-05  0.00D+00 EMaxC= 1.00D-01 BMatC= 1.47D-09 BMatP= 3.67D-07
 IDIUse=1 WtCom= 1.00D+00 WtEn= 0.00D+00
 Coeff-Com: -0.128D-01 0.961D-01-0.381D+00 0.130D+01
 Coeff:     -0.128D-01 0.961D-01-0.381D+00 0.130D+01
 Gap=     0.454 Goal=   None    Shift=    0.000
 RMSDP=2.49D-06 MaxDP=2.87D-05 DE=-1.15D-06 OVMax= 7.14D-05

 Cycle   5  Pass 1  IDiag  1:
 E= -1.00465133202183     Delta-E=       -0.000000005337 Rises=F Damp=F
 DIIS: error= 2.46D-07 at cycle   5 NSaved=   5.
 NSaved= 5 IEnMin= 5 EnMin= -1.00465133202183     IErMin= 5 ErrMin= 2.46D-07
 ErrMax= 2.46D-07  0.00D+00 EMaxC= 1.00D-01 BMatC= 8.54D-13 BMatP= 1.47D-09
 IDIUse=1 WtCom= 1.00D+00 WtEn= 0.00D+00
 Coeff-Com:  0.106D-02-0.799D-02 0.321D-01-0.118D+00 0.109D+01
 Coeff:      0.106D-02-0.799D-02 0.321D-01-0.118D+00 0.109D+01
 Gap=     0.454 Goal=   None    Shift=    0.000
 RMSDP=4.49D-08 MaxDP=6.30D-07 DE=-5.34D-09 OVMax= 1.17D-06

 Cycle   6  Pass 1  IDiag  1:
 E= -1.00465133202398     Delta-E=       -0.000000000002 Rises=F Damp=F
 DIIS: error= 3.27D-08 at cycle   6 NSaved=   6.
 NSaved= 6 IEnMin= 6 EnMin= -1.00465133202398     IErMin= 6 ErrMin= 3.27D-08
 ErrMax= 3.27D-08  0.00D+00 EMaxC= 1.00D-01 BMatC= 9.05D-15 BMatP= 8.54D-13
 IDIUse=1 WtCom= 1.00D+00 WtEn= 0.00D+00
 Coeff-Com:  0.196D-05-0.551D-05-0.329D-04 0.107D-02-0.128D+00 0.113D+01
 Coeff:      0.196D-05-0.551D-05-0.329D-04 0.107D-02-0.128D+00 0.113D+01
 Gap=     0.454 Goal=   None    Shift=    0.000
 RMSDP=3.49D-09 MaxDP=4.69D-08 DE=-2.15D-12 OVMax= 1.30D-07

 SCF Done:  E(RHF) =  -1.00465133202     A.U. after    6 cycles
            NFock=  6  Conv=0.35D-08     -V/T= 2.3788
 KE= 7.286416811800D-01 PE=-2.562113082407D+00 EE= 4.760352619234D-01
 Leave Link  502 at Tue Dec 20 08:03:43 2016, MaxMem=  1610612736 cpu:               0.9 elap:               0.1
 (Enter /home1/gaussian/gdv/I03P/gdv/l801.exe)
 Windowed orbitals will be sorted by symmetry type.
 Range of M.O.s used for correlation:     1    46
 NBasis=    46 NAE=     1 NBE=     1 NFC=     0 NFV=     0
 NROrb=     46 NOA=     1 NOB=     1 NVA=    45 NVB=    45
 Leave Link  801 at Tue Dec 20 08:03:43 2016, MaxMem=  1610612736 cpu:               0.1 elap:               0.0
 (Enter /home1/gaussian/gdv/I03P/gdv/l804.exe)
 Closed-shell transformation, MDV=  1610612736 ITran=3 ISComp=1.
 Unit  1 TFree=         71264 TCopy=        197523.
 Semi-Direct transformation.
 ModeAB=           2 MOrb=             1 LenV=    1610409565
 LASXX=         2025 LTotXX=        2025 LenRXX=        2025
 LTotAB=        3106 MaxLAS=       58650 LenRXY=       58650
 NonZer=       62238 LenScr=      785920 LnRSAI=           0
 LnScr1=           0 LExtra=           0 Total=       846595
 MaxDsk=          -1 SrtSym=           F ITran=            3
 DoSDTr:  NPSUse=  8
 JobTyp=0 Pass  1:  I=   1 to   1.
 (rs|ai) integrals will be sorted in core.
 Complete sort for first half transformation.
 First half transformation complete.
 Complete sort for second half transformation.
 Second half transformation complete.
 Spin components of T(2) and E(2):
     alpha-alpha T2 =       0.0000000000D+00 E2=      0.0000000000D+00
     alpha-beta  T2 =       0.2785634283D-01 E2=     -0.4059185837D-01
     beta-beta   T2 =       0.0000000000D+00 E2=      0.0000000000D+00
 ANorm=    0.1013832502D+01
 E2 =    -0.4059185837D-01 EUMP2 =    -0.10452431903942D+01
 Leave Link  804 at Tue Dec 20 08:03:43 2016, MaxMem=  1610612736 cpu:               0.6 elap:               0.1
 (Enter /home2/plestran/devel/guga/l912.exe)
 Top of link  912.    Tue Dec 20 08:03:43 2016        0.00 cpu,        0.00 elapsed
 *************************************************************************************************************
 GUGA-based CI
 *************************************************************************************************************
 Number of Roots =  46
 Level of Excitation        =    1
 Spin Multiplicity =  1
 Total number of electrons  =    2
 Total Number of CSFs =       46
 -------------------------------------------------------------------------------------------------------------
 Top of DavDag.       Tue Dec 20 08:03:45 2016       14.72 cpu,        1.84 elapsed
 Davidson Disk Diagonalization is being used:
 MVecIn=     46 MSekIn=   46 NVConv=   46 NVConT=    0 MConv=   46 WhenSc=  2 IFact=    3 FinIt=T
 NRoot=    46 Conv= 1.00D-08 ConvT= 1.00D-08 MaxItI=         128 Dim=          46 Max sub=   460
 Iteration     1 internal iteration     1 dimension is    46
 Eigenvalues at current iteration:
 Root      1 :    -1.357436139304006
 Root      2 :    -1.064242262297565
 Root      3 :    -1.010595913634154
 Root      4 :    -0.961115969058047
 Root      5 :    -0.959166445504491
 Root      6 :    -0.959166445504490
 Root      7 :    -0.855300280799908
 Root      8 :    -0.850485743902063
 Root      9 :    -0.850485743902063
 Root     10 :    -0.765288458135845
 Root     11 :    -0.668861356408393
 Root     12 :    -0.563414775677666
 Root     13 :    -0.472810962362497
 Root     14 :    -0.472810962362496
 Root     15 :    -0.374210324694161
 Root     16 :    -0.374210324694161
 Root     17 :    -0.277277808307903
 Root     18 :    -0.260077285485199
 Root     19 :    -0.260077285485197
 Root     20 :    -0.245316959749894
 Root     21 :    -0.245316959749893
 Root     22 :    -0.206656531962515
 Root     23 :    -0.206656531962509
 Root     24 :    -0.203216453290581
 Root     25 :     0.031978128355827
 Root     26 :     0.144713930305767
 Root     27 :     0.144713930305768
 Root     28 :     0.516728295331089
 Root     29 :     1.304392302364951
 Root     30 :     1.713168305926232
 Root     31 :     2.226594924175759
 Root     32 :     2.335369750087486
 Root     33 :     2.335369750087502
 Root     34 :     2.471922500911912
 Root     35 :     2.471922500911919
 Root     36 :     2.553714632368211
 Root     37 :     2.553714632368214
 Root     38 :     2.712070034247219
 Root     39 :     2.712070034247250
 Root     40 :     2.802738942620180
 Root     41 :     2.802738942620193
 Root     42 :     2.834023952744675
 Root     43 :     2.834023952744682
 Root     44 :     3.026727912950346
 Root     45 :     3.077623590203103
 Root     46 :     3.813242317598682
 DEMax= 0.00D+00
 State    1 2nd order lowering   -0.736669563472E-30 norm 7.46D-16
 State    2 2nd order lowering   -0.471805447206E-27 norm 3.65D-13
 State    3 2nd order lowering   -0.135690932263E-27 norm 3.00D-13
 State    4 2nd order lowering   -0.167213556540E-25 norm 2.33D-11
 State    5 2nd order lowering   -0.140495083561E-26 norm 1.57D-12
 State    6 2nd order lowering   -0.125379263645E-27 norm 4.69D-13
 State    7 2nd order lowering   -0.772913542695E-29 norm 3.70D-14
 State    8 2nd order lowering   -0.308045213958E-28 norm 1.78D-13
 State    9 2nd order lowering   -0.219605139795E-28 norm 1.70D-13
 State   10 2nd order lowering   -0.428093986853E-26 norm 3.04D-12
 State   11 2nd order lowering    0.467686031048E-27 norm 3.77D-13
 State   12 2nd order lowering    0.423241206845E-29 norm 1.30D-13
 State   13 2nd order lowering   -0.318052413573E-26 norm 4.29D-12
 State   14 2nd order lowering   -0.174280871759E-26 norm 3.17D-12
 State   15 2nd order lowering    0.193893795118E-25 norm 1.23D-11
 State   16 2nd order lowering    0.354661907683E-26 norm 5.27D-12
 State   17 2nd order lowering   -0.357507720836E-29 norm 4.95D-14
 State   18 2nd order lowering   -0.390807137636E-26 norm 3.73D-12
 State   19 2nd order lowering   -0.254368704735E-27 norm 9.53D-13
 State   20 2nd order lowering   -0.743837960633E-27 norm 8.71D-13
 State   21 2nd order lowering   -0.797018484407E-27 norm 9.02D-13
 State   22 2nd order lowering   -0.559334613734E-26 norm 5.56D-12
 State   23 2nd order lowering   -0.367373508469E-26 norm 4.51D-12
 State   24 2nd order lowering    0.407931904398E-30 norm 1.92D-14
 State   25 2nd order lowering    0.425364718435E-30 norm 2.56D-14
 State   26 2nd order lowering    0.257084764015E-27 norm 3.64D-13
 State   27 2nd order lowering    0.113390998893E-26 norm 7.65D-13
 State   28 2nd order lowering    0.885884833265E-27 norm 9.22D-13
 State   29 2nd order lowering    0.678670998896E-27 norm 1.17D-12
 State   30 2nd order lowering    0.462851018238E-26 norm 2.95D-12
 State   31 2nd order lowering    0.136472729441E-26 norm 1.52D-12
 State   32 2nd order lowering    0.644015935905E-25 norm 1.99D-11
 State   33 2nd order lowering    0.399435647932E-25 norm 1.57D-11
 State   34 2nd order lowering    0.204101803013E-25 norm 1.09D-11
 State   35 2nd order lowering    0.154340809916E-25 norm 9.45D-12
 State   36 2nd order lowering    0.567399566044E-25 norm 1.42D-11
 State   37 2nd order lowering    0.816265448153E-25 norm 1.70D-11
 State   38 2nd order lowering    0.115365590070E-25 norm 4.99D-12
 State   39 2nd order lowering    0.160331081607E-26 norm 1.86D-12
 State   40 2nd order lowering   -0.474081240268E-27 norm 2.85D-13
 State   41 2nd order lowering   -0.224423701982E-27 norm 1.94D-13
 State   42 2nd order lowering    0.317734887511E-27 norm 2.14D-13
 State   43 2nd order lowering    0.358461319705E-27 norm 2.22D-13
 State   44 2nd order lowering    0.402933662280E-26 norm 3.01D-12
 State   45 2nd order lowering    0.196701063894E-26 norm 2.07D-12
 State   46 2nd order lowering    0.267842332129E-32 norm 5.89D-17
 Convergence achieved for final wavefunctions.
 Bot of DavDag.       Tue Dec 20 08:03:52 2016       58.20 cpu,        7.28 elapsed
 -------------------------------------------------------------------------------------------------------------
 E(CI,Root=   0) =       -1.004651332024    
 E(CI,Root=   1) =      -0.7114574550176    
 E(CI,Root=   2) =      -0.6578111063542    
 E(CI,Root=   3) =      -0.6083311617780    
 E(CI,Root=   4) =      -0.6063816382245    
 E(CI,Root=   5) =      -0.6063816382245    
 E(CI,Root=   6) =      -0.5025154735199    
 E(CI,Root=   7) =      -0.4977009366221    
 E(CI,Root=   8) =      -0.4977009366221    
 E(CI,Root=   9) =      -0.4125036508558    
 E(CI,Root=  10) =      -0.3160765491284    
 E(CI,Root=  11) =      -0.2106299683977    
 E(CI,Root=  12) =      -0.1200261550825    
 E(CI,Root=  13) =      -0.1200261550825    
 E(CI,Root=  14) =      -0.2142551741416E-01
 E(CI,Root=  15) =      -0.2142551741416E-01
 E(CI,Root=  16) =       0.7550699897210E-01
 E(CI,Root=  17) =       0.9270752179480E-01
 E(CI,Root=  18) =       0.9270752179480E-01
 E(CI,Root=  19) =       0.1074678475301    
 E(CI,Root=  20) =       0.1074678475301    
 E(CI,Root=  21) =       0.1461282753175    
 E(CI,Root=  22) =       0.1461282753175    
 E(CI,Root=  23) =       0.1495683539894    
 E(CI,Root=  24) =       0.3847629356358    
 E(CI,Root=  25) =       0.4974987375858    
 E(CI,Root=  26) =       0.4974987375858    
 E(CI,Root=  27) =       0.8695131026111    
 E(CI,Root=  28) =        1.657177109645    
 E(CI,Root=  29) =        2.065953113206    
 E(CI,Root=  30) =        2.579379731456    
 E(CI,Root=  31) =        2.688154557367    
 E(CI,Root=  32) =        2.688154557368    
 E(CI,Root=  33) =        2.824707308192    
 E(CI,Root=  34) =        2.824707308192    
 E(CI,Root=  35) =        2.906499439648    
 E(CI,Root=  36) =        2.906499439648    
 E(CI,Root=  37) =        3.064854841527    
 E(CI,Root=  38) =        3.064854841527    
 E(CI,Root=  39) =        3.155523749900    
 E(CI,Root=  40) =        3.155523749900    
 E(CI,Root=  41) =        3.186808760025    
 E(CI,Root=  42) =        3.186808760025    
 E(CI,Root=  43) =        3.379512720230    
 E(CI,Root=  44) =        3.430408397483    
 E(CI,Root=  45) =        4.166027124879    
 *************************************************************************************************************
 GUGA-based TD-CI
 *************************************************************************************************************
 Step Size =      0.00242 fs       0.10000 a.u.

 External field Parameters:
                             Ex =     0.00000 a.u.
                             Ey =     0.00000 a.u.
                             Ez =     0.00100 a.u.
                      Frequency =     1.95930 eV   Wavelength =   632.79841 nm
                          Phase =     0.00000 rad
                          t(on) =     0.00000 fs,
                         t(off) =  1000.00000 fs

 Split Operator Propagation
 Forming Transition Density
 NP =                    8
 NChunk =                  136
 CI dipole matrix                   1
                1             2             3             4             5 
      1  0.000000D+00
      2  0.000000D+00  0.000000D+00
      3  0.000000D+00  0.000000D+00  0.000000D+00
      4  0.000000D+00  0.000000D+00  0.000000D+00  0.000000D+00
      5 -0.447895D+00  0.000000D+00 -0.440884D+00  0.000000D+00  0.000000D+00
      6 -0.137917D+01  0.000000D+00 -0.135758D+01  0.000000D+00  0.000000D+00
      7  0.000000D+00  0.000000D+00  0.000000D+00  0.000000D+00  0.106256D+00
      8  0.000000D+00  0.148570D+01  0.000000D+00  0.480139D+00  0.000000D+00
      9  0.000000D+00 -0.416543D+00  0.000000D+00 -0.134616D+00  0.000000D+00
     10  0.000000D+00  0.000000D+00  0.000000D+00  0.000000D+00  0.000000D+00
     11  0.000000D+00  0.000000D+00  0.000000D+00  0.000000D+00 -0.369643D+00
     12  0.000000D+00  0.000000D+00  0.000000D+00  0.000000D+00  0.000000D+00
     13  0.000000D+00  0.000000D+00  0.000000D+00  0.000000D+00 -0.109709D+01
     14  0.000000D+00  0.000000D+00  0.000000D+00  0.000000D+00  0.405384D+00
     15  0.388290D+00  0.000000D+00 -0.847133D+00  0.000000D+00  0.000000D+00
     16 -0.116723D+00  0.000000D+00  0.254655D+00  0.000000D+00  0.000000D+00
     17  0.000000D+00  0.000000D+00  0.000000D+00  0.000000D+00  0.152644D-01
     18  0.000000D+00  0.000000D+00  0.000000D+00  0.000000D+00  0.000000D+00
     19  0.000000D+00  0.000000D+00  0.000000D+00  0.000000D+00  0.000000D+00
     20  0.000000D+00 -0.782427D-01  0.000000D+00 -0.910438D+00  0.000000D+00
     21  0.000000D+00 -0.361516D-01  0.000000D+00 -0.420663D+00  0.000000D+00
     22  0.157221D+00  0.000000D+00 -0.344669D+00  0.000000D+00  0.000000D+00
     23 -0.265974D+00  0.000000D+00  0.583085D+00  0.000000D+00  0.000000D+00
     24  0.000000D+00  0.000000D+00  0.000000D+00  0.000000D+00  0.000000D+00
     25  0.000000D+00  0.000000D+00  0.000000D+00  0.000000D+00 -0.149403D-01
     26  0.000000D+00  0.698388D-01  0.000000D+00  0.237746D-01  0.000000D+00
     27  0.000000D+00 -0.726034D-02  0.000000D+00 -0.247158D-02  0.000000D+00
     28  0.000000D+00  0.000000D+00  0.000000D+00  0.000000D+00  0.000000D+00
     29  0.000000D+00  0.000000D+00  0.000000D+00  0.000000D+00  0.804555D-01
     30  0.000000D+00  0.000000D+00  0.000000D+00  0.000000D+00  0.000000D+00
     31  0.000000D+00  0.000000D+00  0.000000D+00  0.000000D+00 -0.259963D-01
     32  0.261490D-02  0.000000D+00  0.931962D-01  0.000000D+00  0.000000D+00
     33  0.539214D-03  0.000000D+00  0.192178D-01  0.000000D+00  0.000000D+00
     34  0.000000D+00  0.000000D+00  0.000000D+00  0.000000D+00  0.240290D+00
     35  0.000000D+00  0.000000D+00  0.000000D+00  0.000000D+00 -0.450234D-01
     36  0.000000D+00  0.000000D+00  0.000000D+00  0.000000D+00  0.000000D+00
     37  0.000000D+00  0.000000D+00  0.000000D+00  0.000000D+00  0.000000D+00
     38  0.322027D-01  0.000000D+00  0.158931D+00  0.000000D+00  0.000000D+00
     39 -0.576924D-01  0.000000D+00 -0.284731D+00  0.000000D+00  0.000000D+00
     40  0.000000D+00 -0.119218D-01  0.000000D+00 -0.921280D-01  0.000000D+00
     41  0.000000D+00  0.532236D-03  0.000000D+00  0.411294D-02  0.000000D+00
     42  0.000000D+00 -0.872706D-01  0.000000D+00 -0.154408D+00  0.000000D+00
     43  0.000000D+00  0.564044D-01  0.000000D+00  0.997964D-01  0.000000D+00
     44  0.000000D+00  0.000000D+00  0.000000D+00  0.000000D+00  0.106422D-01
     45  0.000000D+00  0.000000D+00  0.000000D+00  0.000000D+00  0.000000D+00
     46  0.000000D+00  0.000000D+00  0.000000D+00  0.000000D+00  0.000000D+00
                6             7             8             9            10 
      6  0.000000D+00
      7  0.327185D+00  0.000000D+00
      8  0.000000D+00  0.000000D+00  0.000000D+00
      9  0.000000D+00  0.000000D+00  0.000000D+00  0.000000D+00
     10  0.000000D+00  0.000000D+00  0.876213D-01 -0.245662D-01  0.000000D+00
     11 -0.113822D+01  0.000000D+00  0.000000D+00  0.000000D+00  0.000000D+00
     12  0.000000D+00  0.000000D+00  0.125572D+01 -0.352063D+00  0.000000D+00
     13 -0.405384D+00  0.000000D+00  0.000000D+00  0.000000D+00  0.000000D+00
     14 -0.109709D+01  0.000000D+00  0.000000D+00  0.000000D+00  0.000000D+00
     15  0.000000D+00 -0.633827D+00  0.000000D+00  0.000000D+00  0.000000D+00
     16  0.000000D+00  0.190534D+00  0.000000D+00  0.000000D+00  0.000000D+00
     17  0.470026D-01  0.000000D+00  0.000000D+00  0.000000D+00  0.000000D+00
     18  0.000000D+00  0.000000D+00  0.104831D+01 -0.266876D+00  0.000000D+00
     19  0.000000D+00  0.000000D+00 -0.266876D+00 -0.104831D+01  0.000000D+00
     20  0.000000D+00  0.000000D+00  0.000000D+00  0.000000D+00 -0.182741D+00
     21  0.000000D+00  0.000000D+00  0.000000D+00  0.000000D+00 -0.844345D-01
     22  0.000000D+00  0.455150D+00  0.000000D+00  0.000000D+00  0.000000D+00
     23  0.000000D+00 -0.769989D+00  0.000000D+00  0.000000D+00  0.000000D+00
     24  0.000000D+00  0.000000D+00 -0.358159D+00  0.100416D+00  0.000000D+00
     25 -0.460045D-01  0.000000D+00  0.000000D+00  0.000000D+00  0.000000D+00
     26  0.000000D+00  0.000000D+00  0.000000D+00  0.000000D+00  0.752455D+00
     27  0.000000D+00  0.000000D+00  0.000000D+00  0.000000D+00 -0.782242D-01
     28  0.000000D+00  0.000000D+00  0.239091D+00 -0.670335D-01  0.000000D+00
     29  0.247741D+00  0.000000D+00  0.000000D+00  0.000000D+00  0.000000D+00
     30  0.000000D+00  0.000000D+00 -0.298787D+00  0.837703D-01  0.000000D+00
     31 -0.800486D-01  0.000000D+00  0.000000D+00  0.000000D+00  0.000000D+00
     32  0.000000D+00  0.272463D+00  0.000000D+00  0.000000D+00  0.000000D+00
     33  0.000000D+00  0.561840D-01  0.000000D+00  0.000000D+00  0.000000D+00
     34  0.450234D-01  0.000000D+00  0.000000D+00  0.000000D+00  0.000000D+00
     35  0.240290D+00  0.000000D+00  0.000000D+00  0.000000D+00  0.000000D+00
     36  0.000000D+00  0.000000D+00  0.964993D-01  0.236368D+00  0.000000D+00
     37  0.000000D+00  0.000000D+00 -0.236368D+00  0.964993D-01  0.000000D+00
     38  0.000000D+00 -0.618199D-01  0.000000D+00  0.000000D+00  0.000000D+00
     39  0.000000D+00  0.110753D+00  0.000000D+00  0.000000D+00  0.000000D+00
     40  0.000000D+00  0.000000D+00  0.000000D+00  0.000000D+00 -0.191978D+00
     41  0.000000D+00  0.000000D+00  0.000000D+00  0.000000D+00  0.857061D-02
     42  0.000000D+00  0.000000D+00  0.000000D+00  0.000000D+00  0.889478D-02
     43  0.000000D+00  0.000000D+00  0.000000D+00  0.000000D+00 -0.574884D-02
     44  0.327699D-01  0.000000D+00  0.000000D+00  0.000000D+00  0.000000D+00
     45  0.000000D+00  0.000000D+00  0.607431D-01 -0.170304D-01  0.000000D+00
     46  0.000000D+00  0.000000D+00 -0.435667D-01  0.122147D-01  0.000000D+00
               11            12            13            14            15 
     11  0.000000D+00
     12  0.000000D+00  0.000000D+00
     13  0.000000D+00  0.000000D+00  0.000000D+00
     14  0.000000D+00  0.000000D+00  0.000000D+00  0.000000D+00
     15 -0.563130D-01  0.000000D+00  0.975673D-01  0.683111D-01  0.000000D+00
     16  0.169282D-01  0.000000D+00  0.683111D-01 -0.975673D-01  0.000000D+00
     17  0.000000D+00  0.000000D+00  0.000000D+00  0.000000D+00  0.749760D-01
     18  0.000000D+00  0.000000D+00  0.000000D+00  0.000000D+00  0.000000D+00
     19  0.000000D+00  0.000000D+00  0.000000D+00  0.000000D+00  0.000000D+00
     20  0.000000D+00 -0.449533D+00  0.000000D+00  0.000000D+00  0.000000D+00
     21  0.000000D+00 -0.207704D+00  0.000000D+00  0.000000D+00  0.000000D+00
     22 -0.225281D+00  0.000000D+00  0.258172D-01 -0.667650D-01  0.000000D+00
     23  0.381114D+00  0.000000D+00  0.667650D-01  0.258172D-01  0.000000D+00
     24  0.000000D+00  0.000000D+00  0.000000D+00  0.000000D+00  0.000000D+00
     25  0.000000D+00  0.000000D+00  0.000000D+00  0.000000D+00 -0.132762D+00
     26  0.000000D+00 -0.113386D+00  0.000000D+00  0.000000D+00  0.000000D+00
     27  0.000000D+00  0.117875D-01  0.000000D+00  0.000000D+00  0.000000D+00
     28  0.000000D+00  0.000000D+00  0.000000D+00  0.000000D+00  0.000000D+00
     29  0.000000D+00  0.000000D+00  0.000000D+00  0.000000D+00  0.357566D+00
     30  0.000000D+00  0.000000D+00  0.000000D+00  0.000000D+00  0.000000D+00
     31  0.000000D+00  0.000000D+00  0.000000D+00  0.000000D+00 -0.284509D+00
     32 -0.139447D+00  0.000000D+00 -0.302210D-01 -0.602982D-01  0.000000D+00
     33 -0.287551D-01  0.000000D+00 -0.602982D-01  0.302210D-01  0.000000D+00
     34  0.000000D+00  0.000000D+00  0.000000D+00  0.000000D+00  0.202531D+00
     35  0.000000D+00  0.000000D+00  0.000000D+00  0.000000D+00  0.200174D+00
     36  0.000000D+00  0.000000D+00  0.000000D+00  0.000000D+00  0.000000D+00
     37  0.000000D+00  0.000000D+00  0.000000D+00  0.000000D+00  0.000000D+00
     38 -0.130531D+00  0.000000D+00  0.625904D-01 -0.150664D+00  0.000000D+00
     39  0.233852D+00  0.000000D+00  0.150664D+00  0.625904D-01  0.000000D+00
     40  0.000000D+00 -0.807342D-01  0.000000D+00  0.000000D+00  0.000000D+00
     41  0.000000D+00  0.360428D-02  0.000000D+00  0.000000D+00  0.000000D+00
     42  0.000000D+00  0.190613D+00  0.000000D+00  0.000000D+00  0.000000D+00
     43  0.000000D+00 -0.123196D+00  0.000000D+00  0.000000D+00  0.000000D+00
     44  0.000000D+00  0.000000D+00  0.000000D+00  0.000000D+00  0.211027D+00
     45  0.000000D+00  0.000000D+00  0.000000D+00  0.000000D+00  0.000000D+00
     46  0.000000D+00  0.000000D+00  0.000000D+00  0.000000D+00  0.000000D+00
               16            17            18            19            20 
     16  0.000000D+00
     17 -0.225384D-01  0.000000D+00
     18  0.000000D+00  0.000000D+00  0.000000D+00
     19  0.000000D+00  0.000000D+00  0.000000D+00  0.000000D+00
     20  0.000000D+00  0.000000D+00  0.131601D+00 -0.570034D-01  0.000000D+00
     21  0.000000D+00  0.000000D+00  0.570034D-01  0.131601D+00  0.000000D+00
     22  0.000000D+00  0.236921D-01  0.000000D+00  0.000000D+00  0.000000D+00
     23  0.000000D+00 -0.400806D-01  0.000000D+00  0.000000D+00  0.000000D+00
     24  0.000000D+00  0.000000D+00  0.000000D+00  0.000000D+00  0.832401D-01
     25  0.399095D-01  0.000000D+00  0.000000D+00  0.000000D+00  0.000000D+00
     26  0.000000D+00  0.000000D+00  0.172700D+00  0.221666D-01  0.000000D+00
     27  0.000000D+00  0.000000D+00 -0.221666D-01  0.172700D+00  0.000000D+00
     28  0.000000D+00  0.000000D+00  0.000000D+00  0.000000D+00 -0.449538D+00
     29 -0.107487D+00  0.000000D+00  0.000000D+00  0.000000D+00  0.000000D+00
     30  0.000000D+00  0.000000D+00  0.000000D+00  0.000000D+00  0.481255D+00
     31  0.855259D-01  0.000000D+00  0.000000D+00  0.000000D+00  0.000000D+00
     32  0.000000D+00  0.486613D+00  0.000000D+00  0.000000D+00  0.000000D+00
     33  0.000000D+00  0.100344D+00  0.000000D+00  0.000000D+00  0.000000D+00
     34  0.200174D+00  0.000000D+00  0.000000D+00  0.000000D+00  0.000000D+00
     35 -0.202531D+00  0.000000D+00  0.000000D+00  0.000000D+00  0.000000D+00
     36  0.000000D+00  0.000000D+00  0.000000D+00  0.000000D+00 -0.173819D+00
     37  0.000000D+00  0.000000D+00  0.000000D+00  0.000000D+00  0.285373D+00
     38  0.000000D+00 -0.375593D-01  0.000000D+00  0.000000D+00  0.000000D+00
     39  0.000000D+00  0.672890D-01  0.000000D+00  0.000000D+00  0.000000D+00
     40  0.000000D+00  0.000000D+00 -0.536891D-01 -0.369333D-02  0.000000D+00
     41  0.000000D+00  0.000000D+00  0.369333D-02 -0.536891D-01  0.000000D+00
     42  0.000000D+00  0.000000D+00  0.204157D+00  0.139028D+00  0.000000D+00
     43  0.000000D+00  0.000000D+00 -0.139028D+00  0.204157D+00  0.000000D+00
     44 -0.634366D-01  0.000000D+00  0.000000D+00  0.000000D+00  0.000000D+00
     45  0.000000D+00  0.000000D+00  0.000000D+00  0.000000D+00 -0.111569D+00
     46  0.000000D+00  0.000000D+00  0.000000D+00  0.000000D+00  0.188011D+00
               21            22            23            24            25 
     21  0.000000D+00
     22  0.000000D+00  0.000000D+00
     23  0.000000D+00  0.000000D+00  0.000000D+00
     24  0.384606D-01  0.000000D+00  0.000000D+00  0.000000D+00
     25  0.000000D+00  0.252360D+00 -0.426923D+00  0.000000D+00  0.000000D+00
     26  0.000000D+00  0.000000D+00  0.000000D+00 -0.537553D+00  0.000000D+00
     27  0.000000D+00  0.000000D+00  0.000000D+00  0.558833D-01  0.000000D+00
     28 -0.207706D+00  0.000000D+00  0.000000D+00  0.000000D+00  0.000000D+00
     29  0.000000D+00  0.300744D+00 -0.508775D+00  0.000000D+00  0.000000D+00
     30  0.222361D+00  0.000000D+00  0.000000D+00  0.000000D+00  0.000000D+00
     31  0.000000D+00 -0.450372D-01  0.761905D-01  0.000000D+00  0.000000D+00
     32  0.000000D+00  0.000000D+00  0.000000D+00  0.000000D+00 -0.110390D+00
     33  0.000000D+00  0.000000D+00  0.000000D+00  0.000000D+00 -0.227633D-01
     34  0.000000D+00 -0.220973D+00 -0.370568D+00  0.000000D+00  0.000000D+00
     35  0.000000D+00  0.370568D+00 -0.220973D+00  0.000000D+00  0.000000D+00
     36  0.285373D+00  0.000000D+00  0.000000D+00  0.000000D+00  0.000000D+00
     37  0.173819D+00  0.000000D+00  0.000000D+00  0.000000D+00  0.000000D+00
     38  0.000000D+00  0.000000D+00  0.000000D+00  0.000000D+00 -0.493441D-01
     39  0.000000D+00  0.000000D+00  0.000000D+00  0.000000D+00  0.884019D-01
     40  0.000000D+00  0.000000D+00  0.000000D+00 -0.391677D-01  0.000000D+00
     41  0.000000D+00  0.000000D+00  0.000000D+00  0.174859D-02  0.000000D+00
     42  0.000000D+00  0.000000D+00  0.000000D+00 -0.226048D+00  0.000000D+00
     43  0.000000D+00  0.000000D+00  0.000000D+00  0.146098D+00  0.000000D+00
     44  0.000000D+00 -0.911583D-01  0.154215D+00  0.000000D+00  0.000000D+00
     45 -0.515498D-01  0.000000D+00  0.000000D+00  0.000000D+00  0.000000D+00
     46  0.868694D-01  0.000000D+00  0.000000D+00  0.000000D+00  0.000000D+00
               26            27            28            29            30 
     26  0.000000D+00
     27  0.000000D+00  0.000000D+00
     28 -0.618573D-01  0.643060D-02  0.000000D+00
     29  0.000000D+00  0.000000D+00  0.000000D+00  0.000000D+00
     30  0.332485D+00 -0.345647D-01  0.000000D+00  0.000000D+00  0.000000D+00
     31  0.000000D+00  0.000000D+00  0.000000D+00  0.000000D+00  0.000000D+00
     32  0.000000D+00  0.000000D+00  0.000000D+00  0.140296D-01  0.000000D+00
     33  0.000000D+00  0.000000D+00  0.000000D+00  0.289301D-02  0.000000D+00
     34  0.000000D+00  0.000000D+00  0.000000D+00  0.000000D+00  0.000000D+00
     35  0.000000D+00  0.000000D+00  0.000000D+00  0.000000D+00  0.000000D+00
     36 -0.366832D-02  0.343823D+00  0.000000D+00  0.000000D+00  0.000000D+00
     37  0.343823D+00  0.366832D-02  0.000000D+00  0.000000D+00  0.000000D+00
     38  0.000000D+00  0.000000D+00  0.000000D+00 -0.203803D+00  0.000000D+00
     39  0.000000D+00  0.000000D+00  0.000000D+00  0.365121D+00  0.000000D+00
     40  0.000000D+00  0.000000D+00  0.500616D+00  0.000000D+00  0.135074D+00
     41  0.000000D+00  0.000000D+00 -0.223494D-01  0.000000D+00 -0.603022D-02
     42  0.000000D+00  0.000000D+00 -0.168148D+00  0.000000D+00  0.281369D+00
     43  0.000000D+00  0.000000D+00  0.108677D+00  0.000000D+00 -0.181853D+00
     44  0.000000D+00  0.000000D+00  0.000000D+00  0.000000D+00  0.000000D+00
     45  0.200276D+00 -0.208205D-01  0.000000D+00  0.000000D+00  0.000000D+00
     46 -0.222491D+00  0.231299D-01  0.000000D+00  0.000000D+00  0.000000D+00
               31            32            33            34            35 
     31  0.000000D+00
     32  0.338903D-01  0.000000D+00
     33  0.698846D-02  0.000000D+00  0.000000D+00
     34  0.000000D+00 -0.254055D-02 -0.833445D-02  0.000000D+00
     35  0.000000D+00 -0.833445D-02  0.254055D-02  0.000000D+00  0.000000D+00
     36  0.000000D+00  0.000000D+00  0.000000D+00  0.000000D+00  0.000000D+00
     37  0.000000D+00  0.000000D+00  0.000000D+00  0.000000D+00  0.000000D+00
     38 -0.604051D-01  0.000000D+00  0.000000D+00 -0.963335D-01  0.152818D+00
     39  0.108218D+00  0.000000D+00  0.000000D+00 -0.152818D+00 -0.963335D-01
     40  0.000000D+00  0.000000D+00  0.000000D+00  0.000000D+00  0.000000D+00
     41  0.000000D+00  0.000000D+00  0.000000D+00  0.000000D+00  0.000000D+00
     42  0.000000D+00  0.000000D+00  0.000000D+00  0.000000D+00  0.000000D+00
     43  0.000000D+00  0.000000D+00  0.000000D+00  0.000000D+00  0.000000D+00
     44  0.000000D+00 -0.147431D+00 -0.304014D-01  0.000000D+00  0.000000D+00
     45  0.000000D+00  0.000000D+00  0.000000D+00  0.000000D+00  0.000000D+00
     46  0.000000D+00  0.000000D+00  0.000000D+00  0.000000D+00  0.000000D+00
               36            37            38            39            40 
     36  0.000000D+00
     37  0.000000D+00  0.000000D+00
     38  0.000000D+00  0.000000D+00  0.000000D+00
     39  0.000000D+00  0.000000D+00  0.000000D+00  0.000000D+00
     40 -0.456823D-02  0.654906D-01  0.000000D+00  0.000000D+00  0.000000D+00
     41  0.654906D-01  0.456823D-02  0.000000D+00  0.000000D+00  0.000000D+00
     42 -0.702309D-01 -0.141921D+00  0.000000D+00  0.000000D+00  0.000000D+00
     43 -0.141921D+00  0.702309D-01  0.000000D+00  0.000000D+00  0.000000D+00
     44  0.000000D+00  0.000000D+00 -0.237654D-01  0.425766D-01  0.000000D+00
     45  0.000000D+00  0.000000D+00  0.000000D+00  0.000000D+00 -0.756630D-01
     46  0.000000D+00  0.000000D+00  0.000000D+00  0.000000D+00 -0.192871D-01
               41            42            43            44            45 
     41  0.000000D+00
     42  0.000000D+00  0.000000D+00
     43  0.000000D+00  0.000000D+00  0.000000D+00
     44  0.000000D+00  0.000000D+00  0.000000D+00  0.000000D+00
     45  0.337788D-02 -0.119364D+00  0.771466D-01  0.000000D+00  0.000000D+00
     46  0.861048D-03 -0.152305D+00  0.984369D-01  0.000000D+00  0.000000D+00
               46 
     46  0.000000D+00
 CI dipole matrix                   2
                1             2             3             4             5 
      1  0.000000D+00
      2  0.000000D+00  0.000000D+00
      3  0.000000D+00  0.000000D+00  0.000000D+00
      4  0.000000D+00  0.000000D+00  0.000000D+00  0.000000D+00
      5 -0.137917D+01  0.000000D+00 -0.135758D+01  0.000000D+00  0.000000D+00
      6  0.447895D+00  0.000000D+00  0.440884D+00  0.000000D+00  0.000000D+00
      7  0.000000D+00  0.000000D+00  0.000000D+00  0.000000D+00  0.327185D+00
      8  0.000000D+00 -0.416543D+00  0.000000D+00 -0.134616D+00  0.000000D+00
      9  0.000000D+00 -0.148570D+01  0.000000D+00 -0.480139D+00  0.000000D+00
     10  0.000000D+00  0.000000D+00  0.000000D+00  0.000000D+00  0.000000D+00
     11  0.000000D+00  0.000000D+00  0.000000D+00  0.000000D+00 -0.113822D+01
     12  0.000000D+00  0.000000D+00  0.000000D+00  0.000000D+00  0.000000D+00
     13  0.000000D+00  0.000000D+00  0.000000D+00  0.000000D+00  0.405384D+00
     14  0.000000D+00  0.000000D+00  0.000000D+00  0.000000D+00  0.109709D+01
     15  0.116723D+00  0.000000D+00 -0.254655D+00  0.000000D+00  0.000000D+00
     16  0.388290D+00  0.000000D+00 -0.847133D+00  0.000000D+00  0.000000D+00
     17  0.000000D+00  0.000000D+00  0.000000D+00  0.000000D+00  0.470026D-01
     18  0.000000D+00  0.000000D+00  0.000000D+00  0.000000D+00  0.000000D+00
     19  0.000000D+00  0.000000D+00  0.000000D+00  0.000000D+00  0.000000D+00
     20  0.000000D+00  0.361516D-01  0.000000D+00  0.420663D+00  0.000000D+00
     21  0.000000D+00 -0.782427D-01  0.000000D+00 -0.910438D+00  0.000000D+00
     22 -0.265974D+00  0.000000D+00  0.583085D+00  0.000000D+00  0.000000D+00
     23 -0.157221D+00  0.000000D+00  0.344669D+00  0.000000D+00  0.000000D+00
     24  0.000000D+00  0.000000D+00  0.000000D+00  0.000000D+00  0.000000D+00
     25  0.000000D+00  0.000000D+00  0.000000D+00  0.000000D+00 -0.460045D-01
     26  0.000000D+00  0.726034D-02  0.000000D+00  0.247158D-02  0.000000D+00
     27  0.000000D+00  0.698388D-01  0.000000D+00  0.237746D-01  0.000000D+00
     28  0.000000D+00  0.000000D+00  0.000000D+00  0.000000D+00  0.000000D+00
     29  0.000000D+00  0.000000D+00  0.000000D+00  0.000000D+00  0.247741D+00
     30  0.000000D+00  0.000000D+00  0.000000D+00  0.000000D+00  0.000000D+00
     31  0.000000D+00  0.000000D+00  0.000000D+00  0.000000D+00 -0.800486D-01
     32 -0.539214D-03  0.000000D+00 -0.192178D-01  0.000000D+00  0.000000D+00
     33  0.261490D-02  0.000000D+00  0.931962D-01  0.000000D+00  0.000000D+00
     34  0.000000D+00  0.000000D+00  0.000000D+00  0.000000D+00 -0.450234D-01
     35  0.000000D+00  0.000000D+00  0.000000D+00  0.000000D+00 -0.240290D+00
     36  0.000000D+00  0.000000D+00  0.000000D+00  0.000000D+00  0.000000D+00
     37  0.000000D+00  0.000000D+00  0.000000D+00  0.000000D+00  0.000000D+00
     38 -0.576924D-01  0.000000D+00 -0.284731D+00  0.000000D+00  0.000000D+00
     39 -0.322027D-01  0.000000D+00 -0.158931D+00  0.000000D+00  0.000000D+00
     40  0.000000D+00 -0.532236D-03  0.000000D+00 -0.411294D-02  0.000000D+00
     41  0.000000D+00 -0.119218D-01  0.000000D+00 -0.921280D-01  0.000000D+00
     42  0.000000D+00 -0.564044D-01  0.000000D+00 -0.997964D-01  0.000000D+00
     43  0.000000D+00 -0.872706D-01  0.000000D+00 -0.154408D+00  0.000000D+00
     44  0.000000D+00  0.000000D+00  0.000000D+00  0.000000D+00  0.327699D-01
     45  0.000000D+00  0.000000D+00  0.000000D+00  0.000000D+00  0.000000D+00
     46  0.000000D+00  0.000000D+00  0.000000D+00  0.000000D+00  0.000000D+00
                6             7             8             9            10 
      6  0.000000D+00
      7 -0.106256D+00  0.000000D+00
      8  0.000000D+00  0.000000D+00  0.000000D+00
      9  0.000000D+00  0.000000D+00  0.000000D+00  0.000000D+00
     10  0.000000D+00  0.000000D+00 -0.245662D-01 -0.876213D-01  0.000000D+00
     11  0.369643D+00  0.000000D+00  0.000000D+00  0.000000D+00  0.000000D+00
     12  0.000000D+00  0.000000D+00 -0.352063D+00 -0.125572D+01  0.000000D+00
     13 -0.109709D+01  0.000000D+00  0.000000D+00  0.000000D+00  0.000000D+00
     14  0.405384D+00  0.000000D+00  0.000000D+00  0.000000D+00  0.000000D+00
     15  0.000000D+00 -0.190534D+00  0.000000D+00  0.000000D+00  0.000000D+00
     16  0.000000D+00 -0.633827D+00  0.000000D+00  0.000000D+00  0.000000D+00
     17 -0.152644D-01  0.000000D+00  0.000000D+00  0.000000D+00  0.000000D+00
     18  0.000000D+00  0.000000D+00  0.266876D+00  0.104831D+01  0.000000D+00
     19  0.000000D+00  0.000000D+00  0.104831D+01 -0.266876D+00  0.000000D+00
     20  0.000000D+00  0.000000D+00  0.000000D+00  0.000000D+00  0.844345D-01
     21  0.000000D+00  0.000000D+00  0.000000D+00  0.000000D+00 -0.182741D+00
     22  0.000000D+00 -0.769989D+00  0.000000D+00  0.000000D+00  0.000000D+00
     23  0.000000D+00 -0.455150D+00  0.000000D+00  0.000000D+00  0.000000D+00
     24  0.000000D+00  0.000000D+00  0.100416D+00  0.358159D+00  0.000000D+00
     25  0.149403D-01  0.000000D+00  0.000000D+00  0.000000D+00  0.000000D+00
     26  0.000000D+00  0.000000D+00  0.000000D+00  0.000000D+00  0.782242D-01
     27  0.000000D+00  0.000000D+00  0.000000D+00  0.000000D+00  0.752455D+00
     28  0.000000D+00  0.000000D+00 -0.670335D-01 -0.239091D+00  0.000000D+00
     29 -0.804555D-01  0.000000D+00  0.000000D+00  0.000000D+00  0.000000D+00
     30  0.000000D+00  0.000000D+00  0.837703D-01  0.298787D+00  0.000000D+00
     31  0.259963D-01  0.000000D+00  0.000000D+00  0.000000D+00  0.000000D+00
     32  0.000000D+00 -0.561840D-01  0.000000D+00  0.000000D+00  0.000000D+00
     33  0.000000D+00  0.272463D+00  0.000000D+00  0.000000D+00  0.000000D+00
     34  0.240290D+00  0.000000D+00  0.000000D+00  0.000000D+00  0.000000D+00
     35 -0.450234D-01  0.000000D+00  0.000000D+00  0.000000D+00  0.000000D+00
     36  0.000000D+00  0.000000D+00 -0.236368D+00  0.964993D-01  0.000000D+00
     37  0.000000D+00  0.000000D+00 -0.964993D-01 -0.236368D+00  0.000000D+00
     38  0.000000D+00  0.110753D+00  0.000000D+00  0.000000D+00  0.000000D+00
     39  0.000000D+00  0.618199D-01  0.000000D+00  0.000000D+00  0.000000D+00
     40  0.000000D+00  0.000000D+00  0.000000D+00  0.000000D+00 -0.857061D-02
     41  0.000000D+00  0.000000D+00  0.000000D+00  0.000000D+00 -0.191978D+00
     42  0.000000D+00  0.000000D+00  0.000000D+00  0.000000D+00  0.574884D-02
     43  0.000000D+00  0.000000D+00  0.000000D+00  0.000000D+00  0.889478D-02
     44 -0.106422D-01  0.000000D+00  0.000000D+00  0.000000D+00  0.000000D+00
     45  0.000000D+00  0.000000D+00 -0.170304D-01 -0.607431D-01  0.000000D+00
     46  0.000000D+00  0.000000D+00  0.122147D-01  0.435667D-01  0.000000D+00
               11            12            13            14            15 
     11  0.000000D+00
     12  0.000000D+00  0.000000D+00
     13  0.000000D+00  0.000000D+00  0.000000D+00
     14  0.000000D+00  0.000000D+00  0.000000D+00  0.000000D+00
     15 -0.169282D-01  0.000000D+00  0.683111D-01 -0.975673D-01  0.000000D+00
     16 -0.563130D-01  0.000000D+00 -0.975673D-01 -0.683111D-01  0.000000D+00
     17  0.000000D+00  0.000000D+00  0.000000D+00  0.000000D+00  0.225384D-01
     18  0.000000D+00  0.000000D+00  0.000000D+00  0.000000D+00  0.000000D+00
     19  0.000000D+00  0.000000D+00  0.000000D+00  0.000000D+00  0.000000D+00
     20  0.000000D+00  0.207704D+00  0.000000D+00  0.000000D+00  0.000000D+00
     21  0.000000D+00 -0.449533D+00  0.000000D+00  0.000000D+00  0.000000D+00
     22  0.381114D+00  0.000000D+00 -0.667650D-01 -0.258172D-01  0.000000D+00
     23  0.225281D+00  0.000000D+00  0.258172D-01 -0.667650D-01  0.000000D+00
     24  0.000000D+00  0.000000D+00  0.000000D+00  0.000000D+00  0.000000D+00
     25  0.000000D+00  0.000000D+00  0.000000D+00  0.000000D+00 -0.399095D-01
     26  0.000000D+00 -0.117875D-01  0.000000D+00  0.000000D+00  0.000000D+00
     27  0.000000D+00 -0.113386D+00  0.000000D+00  0.000000D+00  0.000000D+00
     28  0.000000D+00  0.000000D+00  0.000000D+00  0.000000D+00  0.000000D+00
     29  0.000000D+00  0.000000D+00  0.000000D+00  0.000000D+00  0.107487D+00
     30  0.000000D+00  0.000000D+00  0.000000D+00  0.000000D+00  0.000000D+00
     31  0.000000D+00  0.000000D+00  0.000000D+00  0.000000D+00 -0.855259D-01
     32  0.287551D-01  0.000000D+00 -0.602982D-01  0.302210D-01  0.000000D+00
     33 -0.139447D+00  0.000000D+00  0.302210D-01  0.602982D-01  0.000000D+00
     34  0.000000D+00  0.000000D+00  0.000000D+00  0.000000D+00  0.200174D+00
     35  0.000000D+00  0.000000D+00  0.000000D+00  0.000000D+00 -0.202531D+00
     36  0.000000D+00  0.000000D+00  0.000000D+00  0.000000D+00  0.000000D+00
     37  0.000000D+00  0.000000D+00  0.000000D+00  0.000000D+00  0.000000D+00
     38  0.233852D+00  0.000000D+00 -0.150664D+00 -0.625904D-01  0.000000D+00
     39  0.130531D+00  0.000000D+00  0.625904D-01 -0.150664D+00  0.000000D+00
     40  0.000000D+00 -0.360428D-02  0.000000D+00  0.000000D+00  0.000000D+00
     41  0.000000D+00 -0.807342D-01  0.000000D+00  0.000000D+00  0.000000D+00
     42  0.000000D+00  0.123196D+00  0.000000D+00  0.000000D+00  0.000000D+00
     43  0.000000D+00  0.190613D+00  0.000000D+00  0.000000D+00  0.000000D+00
     44  0.000000D+00  0.000000D+00  0.000000D+00  0.000000D+00  0.634366D-01
     45  0.000000D+00  0.000000D+00  0.000000D+00  0.000000D+00  0.000000D+00
     46  0.000000D+00  0.000000D+00  0.000000D+00  0.000000D+00  0.000000D+00
               16            17            18            19            20 
     16  0.000000D+00
     17  0.749760D-01  0.000000D+00
     18  0.000000D+00  0.000000D+00  0.000000D+00
     19  0.000000D+00  0.000000D+00  0.000000D+00  0.000000D+00
     20  0.000000D+00  0.000000D+00  0.570034D-01  0.131601D+00  0.000000D+00
     21  0.000000D+00  0.000000D+00 -0.131601D+00  0.570034D-01  0.000000D+00
     22  0.000000D+00 -0.400806D-01  0.000000D+00  0.000000D+00  0.000000D+00
     23  0.000000D+00 -0.236921D-01  0.000000D+00  0.000000D+00  0.000000D+00
     24  0.000000D+00  0.000000D+00  0.000000D+00  0.000000D+00 -0.384606D-01
     25 -0.132762D+00  0.000000D+00  0.000000D+00  0.000000D+00  0.000000D+00
     26  0.000000D+00  0.000000D+00 -0.221666D-01  0.172700D+00  0.000000D+00
     27  0.000000D+00  0.000000D+00 -0.172700D+00 -0.221666D-01  0.000000D+00
     28  0.000000D+00  0.000000D+00  0.000000D+00  0.000000D+00  0.207706D+00
     29  0.357566D+00  0.000000D+00  0.000000D+00  0.000000D+00  0.000000D+00
     30  0.000000D+00  0.000000D+00  0.000000D+00  0.000000D+00 -0.222361D+00
     31 -0.284509D+00  0.000000D+00  0.000000D+00  0.000000D+00  0.000000D+00
     32  0.000000D+00 -0.100344D+00  0.000000D+00  0.000000D+00  0.000000D+00
     33  0.000000D+00  0.486613D+00  0.000000D+00  0.000000D+00  0.000000D+00
     34 -0.202531D+00  0.000000D+00  0.000000D+00  0.000000D+00  0.000000D+00
     35 -0.200174D+00  0.000000D+00  0.000000D+00  0.000000D+00  0.000000D+00
     36  0.000000D+00  0.000000D+00  0.000000D+00  0.000000D+00  0.285373D+00
     37  0.000000D+00  0.000000D+00  0.000000D+00  0.000000D+00  0.173819D+00
     38  0.000000D+00  0.672890D-01  0.000000D+00  0.000000D+00  0.000000D+00
     39  0.000000D+00  0.375593D-01  0.000000D+00  0.000000D+00  0.000000D+00
     40  0.000000D+00  0.000000D+00  0.369333D-02 -0.536891D-01  0.000000D+00
     41  0.000000D+00  0.000000D+00  0.536891D-01  0.369333D-02  0.000000D+00
     42  0.000000D+00  0.000000D+00 -0.139028D+00  0.204157D+00  0.000000D+00
     43  0.000000D+00  0.000000D+00 -0.204157D+00 -0.139028D+00  0.000000D+00
     44  0.211027D+00  0.000000D+00  0.000000D+00  0.000000D+00  0.000000D+00
     45  0.000000D+00  0.000000D+00  0.000000D+00  0.000000D+00  0.515498D-01
     46  0.000000D+00  0.000000D+00  0.000000D+00  0.000000D+00 -0.868694D-01
               21            22            23            24            25 
     21  0.000000D+00
     22  0.000000D+00  0.000000D+00
     23  0.000000D+00  0.000000D+00  0.000000D+00
     24  0.832401D-01  0.000000D+00  0.000000D+00  0.000000D+00
     25  0.000000D+00 -0.426923D+00 -0.252360D+00  0.000000D+00  0.000000D+00
     26  0.000000D+00  0.000000D+00  0.000000D+00 -0.558833D-01  0.000000D+00
     27  0.000000D+00  0.000000D+00  0.000000D+00 -0.537553D+00  0.000000D+00
     28 -0.449538D+00  0.000000D+00  0.000000D+00  0.000000D+00  0.000000D+00
     29  0.000000D+00 -0.508775D+00 -0.300744D+00  0.000000D+00  0.000000D+00
     30  0.481255D+00  0.000000D+00  0.000000D+00  0.000000D+00  0.000000D+00
     31  0.000000D+00  0.761905D-01  0.450372D-01  0.000000D+00  0.000000D+00
     32  0.000000D+00  0.000000D+00  0.000000D+00  0.000000D+00  0.227633D-01
     33  0.000000D+00  0.000000D+00  0.000000D+00  0.000000D+00 -0.110390D+00
     34  0.000000D+00  0.370568D+00 -0.220973D+00  0.000000D+00  0.000000D+00
     35  0.000000D+00  0.220973D+00  0.370568D+00  0.000000D+00  0.000000D+00
     36  0.173819D+00  0.000000D+00  0.000000D+00  0.000000D+00  0.000000D+00
     37 -0.285373D+00  0.000000D+00  0.000000D+00  0.000000D+00  0.000000D+00
     38  0.000000D+00  0.000000D+00  0.000000D+00  0.000000D+00  0.884019D-01
     39  0.000000D+00  0.000000D+00  0.000000D+00  0.000000D+00  0.493441D-01
     40  0.000000D+00  0.000000D+00  0.000000D+00 -0.174859D-02  0.000000D+00
     41  0.000000D+00  0.000000D+00  0.000000D+00 -0.391677D-01  0.000000D+00
     42  0.000000D+00  0.000000D+00  0.000000D+00 -0.146098D+00  0.000000D+00
     43  0.000000D+00  0.000000D+00  0.000000D+00 -0.226048D+00  0.000000D+00
     44  0.000000D+00  0.154215D+00  0.911583D-01  0.000000D+00  0.000000D+00
     45 -0.111569D+00  0.000000D+00  0.000000D+00  0.000000D+00  0.000000D+00
     46  0.188011D+00  0.000000D+00  0.000000D+00  0.000000D+00  0.000000D+00
               26            27            28            29            30 
     26  0.000000D+00
     27  0.000000D+00  0.000000D+00
     28 -0.643060D-02 -0.618573D-01  0.000000D+00
     29  0.000000D+00  0.000000D+00  0.000000D+00  0.000000D+00
     30  0.345647D-01  0.332485D+00  0.000000D+00  0.000000D+00  0.000000D+00
     31  0.000000D+00  0.000000D+00  0.000000D+00  0.000000D+00  0.000000D+00
     32  0.000000D+00  0.000000D+00  0.000000D+00 -0.289301D-02  0.000000D+00
     33  0.000000D+00  0.000000D+00  0.000000D+00  0.140296D-01  0.000000D+00
     34  0.000000D+00  0.000000D+00  0.000000D+00  0.000000D+00  0.000000D+00
     35  0.000000D+00  0.000000D+00  0.000000D+00  0.000000D+00  0.000000D+00
     36  0.343823D+00  0.366832D-02  0.000000D+00  0.000000D+00  0.000000D+00
     37  0.366832D-02 -0.343823D+00  0.000000D+00  0.000000D+00  0.000000D+00
     38  0.000000D+00  0.000000D+00  0.000000D+00  0.365121D+00  0.000000D+00
     39  0.000000D+00  0.000000D+00  0.000000D+00  0.203803D+00  0.000000D+00
     40  0.000000D+00  0.000000D+00  0.223494D-01  0.000000D+00  0.603022D-02
     41  0.000000D+00  0.000000D+00  0.500616D+00  0.000000D+00  0.135074D+00
     42  0.000000D+00  0.000000D+00 -0.108677D+00  0.000000D+00  0.181853D+00
     43  0.000000D+00  0.000000D+00 -0.168148D+00  0.000000D+00  0.281369D+00
     44  0.000000D+00  0.000000D+00  0.000000D+00  0.000000D+00  0.000000D+00
     45  0.208205D-01  0.200276D+00  0.000000D+00  0.000000D+00  0.000000D+00
     46 -0.231299D-01 -0.222491D+00  0.000000D+00  0.000000D+00  0.000000D+00
               31            32            33            34            35 
     31  0.000000D+00
     32 -0.698846D-02  0.000000D+00
     33  0.338903D-01  0.000000D+00  0.000000D+00
     34  0.000000D+00 -0.833445D-02  0.254055D-02  0.000000D+00
     35  0.000000D+00  0.254055D-02  0.833445D-02  0.000000D+00  0.000000D+00
     36  0.000000D+00  0.000000D+00  0.000000D+00  0.000000D+00  0.000000D+00
     37  0.000000D+00  0.000000D+00  0.000000D+00  0.000000D+00  0.000000D+00
     38  0.108218D+00  0.000000D+00  0.000000D+00  0.152818D+00  0.963335D-01
     39  0.604051D-01  0.000000D+00  0.000000D+00 -0.963335D-01  0.152818D+00
     40  0.000000D+00  0.000000D+00  0.000000D+00  0.000000D+00  0.000000D+00
     41  0.000000D+00  0.000000D+00  0.000000D+00  0.000000D+00  0.000000D+00
     42  0.000000D+00  0.000000D+00  0.000000D+00  0.000000D+00  0.000000D+00
     43  0.000000D+00  0.000000D+00  0.000000D+00  0.000000D+00  0.000000D+00
     44  0.000000D+00  0.304014D-01 -0.147431D+00  0.000000D+00  0.000000D+00
     45  0.000000D+00  0.000000D+00  0.000000D+00  0.000000D+00  0.000000D+00
     46  0.000000D+00  0.000000D+00  0.000000D+00  0.000000D+00  0.000000D+00
               36            37            38            39            40 
     36  0.000000D+00
     37  0.000000D+00  0.000000D+00
     38  0.000000D+00  0.000000D+00  0.000000D+00
     39  0.000000D+00  0.000000D+00  0.000000D+00  0.000000D+00
     40  0.654906D-01  0.456823D-02  0.000000D+00  0.000000D+00  0.000000D+00
     41  0.456823D-02 -0.654906D-01  0.000000D+00  0.000000D+00  0.000000D+00
     42 -0.141921D+00  0.702309D-01  0.000000D+00  0.000000D+00  0.000000D+00
     43  0.702309D-01  0.141921D+00  0.000000D+00  0.000000D+00  0.000000D+00
     44  0.000000D+00  0.000000D+00  0.425766D-01  0.237654D-01  0.000000D+00
     45  0.000000D+00  0.000000D+00  0.000000D+00  0.000000D+00 -0.337788D-02
     46  0.000000D+00  0.000000D+00  0.000000D+00  0.000000D+00 -0.861048D-03
               41            42            43            44            45 
     41  0.000000D+00
     42  0.000000D+00  0.000000D+00
     43  0.000000D+00  0.000000D+00  0.000000D+00
     44  0.000000D+00  0.000000D+00  0.000000D+00  0.000000D+00
     45 -0.756630D-01 -0.771466D-01 -0.119364D+00  0.000000D+00  0.000000D+00
     46 -0.192871D-01 -0.984369D-01 -0.152305D+00  0.000000D+00  0.000000D+00
               46 
     46  0.000000D+00
 CI dipole matrix                   3
                1             2             3             4             5 
      1  0.000000D+00
      2 -0.203233D+01  0.000000D+00
      3  0.000000D+00 -0.218053D+01  0.000000D+00
      4  0.807884D+00  0.000000D+00 -0.324298D+01  0.000000D+00
      5  0.000000D+00  0.000000D+00  0.000000D+00  0.000000D+00  0.000000D+00
      6  0.000000D+00  0.000000D+00  0.000000D+00  0.000000D+00  0.000000D+00
      7  0.000000D+00 -0.190895D+01  0.000000D+00  0.437590D+00  0.000000D+00
      8  0.000000D+00  0.000000D+00  0.000000D+00  0.000000D+00  0.785232D-01
      9  0.000000D+00  0.000000D+00  0.000000D+00  0.000000D+00 -0.193006D+01
     10 -0.151168D+00  0.000000D+00  0.618688D-03  0.000000D+00  0.000000D+00
     11  0.000000D+00  0.297683D+00  0.000000D+00  0.147457D+01  0.000000D+00
     12  0.167404D+00  0.000000D+00  0.114965D+00  0.000000D+00  0.000000D+00
     13  0.000000D+00  0.000000D+00  0.000000D+00  0.000000D+00  0.000000D+00
     14  0.000000D+00  0.000000D+00  0.000000D+00  0.000000D+00  0.000000D+00
     15  0.000000D+00  0.000000D+00  0.000000D+00  0.000000D+00  0.000000D+00
     16  0.000000D+00  0.000000D+00  0.000000D+00  0.000000D+00  0.000000D+00
     17  0.000000D+00 -0.644811D-01  0.000000D+00 -0.100094D+01  0.000000D+00
     18  0.000000D+00  0.000000D+00  0.000000D+00  0.000000D+00  0.000000D+00
     19  0.000000D+00  0.000000D+00  0.000000D+00  0.000000D+00  0.000000D+00
     20  0.000000D+00  0.000000D+00  0.000000D+00  0.000000D+00 -0.898760D-02
     21  0.000000D+00  0.000000D+00  0.000000D+00  0.000000D+00  0.752887D-01
     22  0.000000D+00  0.000000D+00  0.000000D+00  0.000000D+00  0.000000D+00
     23  0.000000D+00  0.000000D+00  0.000000D+00  0.000000D+00  0.000000D+00
     24 -0.156201D+00  0.000000D+00  0.859975D-01  0.000000D+00  0.000000D+00
     25  0.000000D+00 -0.165276D+00  0.000000D+00 -0.404497D+00  0.000000D+00
     26  0.000000D+00  0.000000D+00  0.000000D+00  0.000000D+00 -0.711170D-01
     27  0.000000D+00  0.000000D+00  0.000000D+00  0.000000D+00 -0.160283D+00
     28  0.105574D+00  0.000000D+00 -0.118287D-01  0.000000D+00  0.000000D+00
     29  0.000000D+00 -0.140847D+00  0.000000D+00 -0.399453D+00  0.000000D+00
     30  0.451980D-01  0.000000D+00 -0.138397D-01  0.000000D+00  0.000000D+00
     31  0.000000D+00  0.268640D-01  0.000000D+00 -0.269217D-02  0.000000D+00
     32  0.000000D+00  0.000000D+00  0.000000D+00  0.000000D+00  0.000000D+00
     33  0.000000D+00  0.000000D+00  0.000000D+00  0.000000D+00  0.000000D+00
     34  0.000000D+00  0.000000D+00  0.000000D+00  0.000000D+00  0.000000D+00
     35  0.000000D+00  0.000000D+00  0.000000D+00  0.000000D+00  0.000000D+00
     36  0.000000D+00  0.000000D+00  0.000000D+00  0.000000D+00  0.000000D+00
     37  0.000000D+00  0.000000D+00  0.000000D+00  0.000000D+00  0.000000D+00
     38  0.000000D+00  0.000000D+00  0.000000D+00  0.000000D+00  0.000000D+00
     39  0.000000D+00  0.000000D+00  0.000000D+00  0.000000D+00  0.000000D+00
     40  0.000000D+00  0.000000D+00  0.000000D+00  0.000000D+00  0.143794D-01
     41  0.000000D+00  0.000000D+00  0.000000D+00  0.000000D+00  0.383618D-01
     42  0.000000D+00  0.000000D+00  0.000000D+00  0.000000D+00 -0.233557D-01
     43  0.000000D+00  0.000000D+00  0.000000D+00  0.000000D+00 -0.190032D-01
     44  0.000000D+00 -0.126665D+00  0.000000D+00 -0.181210D+00  0.000000D+00
     45 -0.499587D-01  0.000000D+00  0.179758D-01  0.000000D+00  0.000000D+00
     46  0.118513D-01  0.000000D+00 -0.438830D-02  0.000000D+00  0.000000D+00
                6             7             8             9            10 
      6  0.000000D+00
      7  0.000000D+00  0.000000D+00
      8  0.193006D+01  0.000000D+00  0.000000D+00
      9  0.785232D-01  0.000000D+00  0.000000D+00  0.000000D+00
     10  0.000000D+00  0.292400D+01  0.000000D+00  0.000000D+00  0.000000D+00
     11  0.000000D+00  0.000000D+00  0.000000D+00  0.000000D+00  0.923829D+00
     12  0.000000D+00  0.103125D+00  0.000000D+00  0.000000D+00  0.000000D+00
     13  0.000000D+00  0.000000D+00  0.000000D+00  0.000000D+00  0.000000D+00
     14  0.000000D+00  0.000000D+00  0.000000D+00  0.000000D+00  0.000000D+00
     15  0.000000D+00  0.000000D+00  0.110237D+01 -0.699399D+00  0.000000D+00
     16  0.000000D+00  0.000000D+00 -0.699399D+00 -0.110237D+01  0.000000D+00
     17  0.000000D+00  0.000000D+00  0.000000D+00  0.000000D+00  0.140572D+01
     18  0.000000D+00  0.000000D+00  0.000000D+00  0.000000D+00  0.000000D+00
     19  0.000000D+00  0.000000D+00  0.000000D+00  0.000000D+00  0.000000D+00
     20  0.752887D-01  0.000000D+00  0.000000D+00  0.000000D+00  0.000000D+00
     21  0.898760D-02  0.000000D+00  0.000000D+00  0.000000D+00  0.000000D+00
     22  0.000000D+00  0.000000D+00 -0.451309D+00 -0.432039D+00  0.000000D+00
     23  0.000000D+00  0.000000D+00  0.432039D+00 -0.451309D+00  0.000000D+00
     24  0.000000D+00 -0.263128D+00  0.000000D+00  0.000000D+00  0.000000D+00
     25  0.000000D+00  0.000000D+00  0.000000D+00  0.000000D+00 -0.937326D+00
     26 -0.160283D+00  0.000000D+00  0.000000D+00  0.000000D+00  0.000000D+00
     27  0.711170D-01  0.000000D+00  0.000000D+00  0.000000D+00  0.000000D+00
     28  0.000000D+00 -0.154454D+00  0.000000D+00  0.000000D+00  0.000000D+00
     29  0.000000D+00  0.000000D+00  0.000000D+00  0.000000D+00 -0.463334D+00
     30  0.000000D+00  0.267989D-01  0.000000D+00  0.000000D+00  0.000000D+00
     31  0.000000D+00  0.000000D+00  0.000000D+00  0.000000D+00 -0.349430D+00
     32  0.000000D+00  0.000000D+00 -0.391360D+00  0.274370D-01  0.000000D+00
     33  0.000000D+00  0.000000D+00  0.274370D-01  0.391360D+00  0.000000D+00
     34  0.000000D+00  0.000000D+00  0.000000D+00  0.000000D+00  0.000000D+00
     35  0.000000D+00  0.000000D+00  0.000000D+00  0.000000D+00  0.000000D+00
     36  0.000000D+00  0.000000D+00  0.000000D+00  0.000000D+00  0.000000D+00
     37  0.000000D+00  0.000000D+00  0.000000D+00  0.000000D+00  0.000000D+00
     38  0.000000D+00  0.000000D+00 -0.485177D-01 -0.488046D-01  0.000000D+00
     39  0.000000D+00  0.000000D+00  0.488046D-01 -0.485177D-01  0.000000D+00
     40  0.383618D-01  0.000000D+00  0.000000D+00  0.000000D+00  0.000000D+00
     41 -0.143794D-01  0.000000D+00  0.000000D+00  0.000000D+00  0.000000D+00
     42 -0.190032D-01  0.000000D+00  0.000000D+00  0.000000D+00  0.000000D+00
     43  0.233557D-01  0.000000D+00  0.000000D+00  0.000000D+00  0.000000D+00
     44  0.000000D+00  0.000000D+00  0.000000D+00  0.000000D+00  0.345828D+00
     45  0.000000D+00 -0.169351D-01  0.000000D+00  0.000000D+00  0.000000D+00
     46  0.000000D+00 -0.342286D-02  0.000000D+00  0.000000D+00  0.000000D+00
               11            12            13            14            15 
     11  0.000000D+00
     12 -0.151580D+01  0.000000D+00
     13  0.000000D+00  0.000000D+00  0.000000D+00
     14  0.000000D+00  0.000000D+00  0.000000D+00  0.000000D+00
     15  0.000000D+00  0.000000D+00  0.000000D+00  0.000000D+00  0.000000D+00
     16  0.000000D+00  0.000000D+00  0.000000D+00  0.000000D+00  0.000000D+00
     17  0.000000D+00  0.352567D-01  0.000000D+00  0.000000D+00  0.000000D+00
     18  0.000000D+00  0.000000D+00 -0.918986D+00 -0.122432D+01  0.000000D+00
     19  0.000000D+00  0.000000D+00 -0.122432D+01  0.918986D+00  0.000000D+00
     20  0.000000D+00  0.000000D+00  0.000000D+00  0.000000D+00 -0.658688D-01
     21  0.000000D+00  0.000000D+00  0.000000D+00  0.000000D+00 -0.583378D-01
     22  0.000000D+00  0.000000D+00  0.000000D+00  0.000000D+00  0.000000D+00
     23  0.000000D+00  0.000000D+00  0.000000D+00  0.000000D+00  0.000000D+00
     24  0.286807D+00  0.000000D+00  0.000000D+00  0.000000D+00  0.000000D+00
     25  0.000000D+00  0.126006D+00  0.000000D+00  0.000000D+00  0.000000D+00
     26  0.000000D+00  0.000000D+00  0.000000D+00  0.000000D+00 -0.133822D+01
     27  0.000000D+00  0.000000D+00  0.000000D+00  0.000000D+00 -0.255187D+00
     28 -0.201924D+00  0.000000D+00  0.000000D+00  0.000000D+00  0.000000D+00
     29  0.000000D+00 -0.332528D-01  0.000000D+00  0.000000D+00  0.000000D+00
     30 -0.238841D-01  0.000000D+00  0.000000D+00  0.000000D+00  0.000000D+00
     31  0.000000D+00 -0.228644D+00  0.000000D+00  0.000000D+00  0.000000D+00
     32  0.000000D+00  0.000000D+00  0.000000D+00  0.000000D+00  0.000000D+00
     33  0.000000D+00  0.000000D+00  0.000000D+00  0.000000D+00  0.000000D+00
     34  0.000000D+00  0.000000D+00  0.000000D+00  0.000000D+00  0.000000D+00
     35  0.000000D+00  0.000000D+00  0.000000D+00  0.000000D+00  0.000000D+00
     36  0.000000D+00  0.000000D+00  0.461402D-01 -0.458473D-01  0.000000D+00
     37  0.000000D+00  0.000000D+00  0.458473D-01  0.461402D-01  0.000000D+00
     38  0.000000D+00  0.000000D+00  0.000000D+00  0.000000D+00  0.000000D+00
     39  0.000000D+00  0.000000D+00  0.000000D+00  0.000000D+00  0.000000D+00
     40  0.000000D+00  0.000000D+00  0.000000D+00  0.000000D+00  0.169867D+00
     41  0.000000D+00  0.000000D+00  0.000000D+00  0.000000D+00  0.429042D-01
     42  0.000000D+00  0.000000D+00  0.000000D+00  0.000000D+00 -0.544226D-01
     43  0.000000D+00  0.000000D+00  0.000000D+00  0.000000D+00  0.157536D-01
     44  0.000000D+00  0.475579D+00  0.000000D+00  0.000000D+00  0.000000D+00
     45  0.350566D-01  0.000000D+00  0.000000D+00  0.000000D+00  0.000000D+00
     46 -0.120080D-01  0.000000D+00  0.000000D+00  0.000000D+00  0.000000D+00
               16            17            18            19            20 
     16  0.000000D+00
     17  0.000000D+00  0.000000D+00
     18  0.000000D+00  0.000000D+00  0.000000D+00
     19  0.000000D+00  0.000000D+00  0.000000D+00  0.000000D+00
     20  0.583378D-01  0.000000D+00  0.000000D+00  0.000000D+00  0.000000D+00
     21 -0.658688D-01  0.000000D+00  0.000000D+00  0.000000D+00  0.000000D+00
     22  0.000000D+00  0.000000D+00  0.000000D+00  0.000000D+00 -0.159704D+01
     23  0.000000D+00  0.000000D+00  0.000000D+00  0.000000D+00  0.110226D+01
     24  0.000000D+00  0.201096D+01  0.000000D+00  0.000000D+00  0.000000D+00
     25  0.000000D+00  0.000000D+00  0.000000D+00  0.000000D+00  0.000000D+00
     26  0.255187D+00  0.000000D+00  0.000000D+00  0.000000D+00  0.000000D+00
     27 -0.133822D+01  0.000000D+00  0.000000D+00  0.000000D+00  0.000000D+00
     28  0.000000D+00 -0.732056D+00  0.000000D+00  0.000000D+00  0.000000D+00
     29  0.000000D+00  0.000000D+00  0.000000D+00  0.000000D+00  0.000000D+00
     30  0.000000D+00  0.174894D+00  0.000000D+00  0.000000D+00  0.000000D+00
     31  0.000000D+00  0.000000D+00  0.000000D+00  0.000000D+00  0.000000D+00
     32  0.000000D+00  0.000000D+00  0.000000D+00  0.000000D+00  0.339971D+00
     33  0.000000D+00  0.000000D+00  0.000000D+00  0.000000D+00 -0.794109D-01
     34  0.000000D+00  0.000000D+00  0.381367D-02  0.741264D-02  0.000000D+00
     35  0.000000D+00  0.000000D+00  0.741264D-02 -0.381367D-02  0.000000D+00
     36  0.000000D+00  0.000000D+00  0.000000D+00  0.000000D+00  0.000000D+00
     37  0.000000D+00  0.000000D+00  0.000000D+00  0.000000D+00  0.000000D+00
     38  0.000000D+00  0.000000D+00  0.000000D+00  0.000000D+00  0.279629D+00
     39  0.000000D+00  0.000000D+00  0.000000D+00  0.000000D+00 -0.203398D+00
     40 -0.429042D-01  0.000000D+00  0.000000D+00  0.000000D+00  0.000000D+00
     41  0.169867D+00  0.000000D+00  0.000000D+00  0.000000D+00  0.000000D+00
     42 -0.157536D-01  0.000000D+00  0.000000D+00  0.000000D+00  0.000000D+00
     43 -0.544226D-01  0.000000D+00  0.000000D+00  0.000000D+00  0.000000D+00
     44  0.000000D+00  0.000000D+00  0.000000D+00  0.000000D+00  0.000000D+00
     45  0.000000D+00 -0.853277D-01  0.000000D+00  0.000000D+00  0.000000D+00
     46  0.000000D+00 -0.130395D+00  0.000000D+00  0.000000D+00  0.000000D+00
               21            22            23            24            25 
     21  0.000000D+00
     22  0.110226D+01  0.000000D+00
     23  0.159704D+01  0.000000D+00  0.000000D+00
     24  0.000000D+00  0.000000D+00  0.000000D+00  0.000000D+00
     25  0.000000D+00  0.000000D+00  0.000000D+00  0.180629D+01  0.000000D+00
     26  0.000000D+00  0.209065D+00 -0.455528D+00  0.000000D+00  0.000000D+00
     27  0.000000D+00 -0.455528D+00 -0.209065D+00  0.000000D+00  0.000000D+00
     28  0.000000D+00  0.000000D+00  0.000000D+00  0.000000D+00  0.122627D+01
     29  0.000000D+00  0.000000D+00  0.000000D+00 -0.393149D+00  0.000000D+00
     30  0.000000D+00  0.000000D+00  0.000000D+00  0.000000D+00  0.593089D+00
     31  0.000000D+00  0.000000D+00  0.000000D+00 -0.477052D-01  0.000000D+00
     32  0.794109D-01  0.000000D+00  0.000000D+00  0.000000D+00  0.000000D+00
     33  0.339971D+00  0.000000D+00  0.000000D+00  0.000000D+00  0.000000D+00
     34  0.000000D+00  0.000000D+00  0.000000D+00  0.000000D+00  0.000000D+00
     35  0.000000D+00  0.000000D+00  0.000000D+00  0.000000D+00  0.000000D+00
     36  0.000000D+00  0.000000D+00  0.000000D+00  0.000000D+00  0.000000D+00
     37  0.000000D+00  0.000000D+00  0.000000D+00  0.000000D+00  0.000000D+00
     38 -0.203398D+00  0.000000D+00  0.000000D+00  0.000000D+00  0.000000D+00
     39 -0.279629D+00  0.000000D+00  0.000000D+00  0.000000D+00  0.000000D+00
     40  0.000000D+00  0.630799D-01 -0.118478D+00  0.000000D+00  0.000000D+00
     41  0.000000D+00 -0.118478D+00 -0.630799D-01  0.000000D+00  0.000000D+00
     42  0.000000D+00 -0.391395D-02 -0.979880D-01  0.000000D+00  0.000000D+00
     43  0.000000D+00 -0.979880D-01  0.391395D-02  0.000000D+00  0.000000D+00
     44  0.000000D+00  0.000000D+00  0.000000D+00  0.318901D+00  0.000000D+00
     45  0.000000D+00  0.000000D+00  0.000000D+00  0.000000D+00  0.105104D+00
     46  0.000000D+00  0.000000D+00  0.000000D+00  0.000000D+00 -0.189020D+00
               26            27            28            29            30 
     26  0.000000D+00
     27  0.000000D+00  0.000000D+00
     28  0.000000D+00  0.000000D+00  0.000000D+00
     29  0.000000D+00  0.000000D+00  0.104536D+01  0.000000D+00
     30  0.000000D+00  0.000000D+00  0.000000D+00 -0.121421D+01  0.000000D+00
     31  0.000000D+00  0.000000D+00  0.826078D+00  0.000000D+00  0.650524D+00
     32  0.590205D+00 -0.187072D+00  0.000000D+00  0.000000D+00  0.000000D+00
     33  0.187072D+00  0.590205D+00  0.000000D+00  0.000000D+00  0.000000D+00
     34  0.000000D+00  0.000000D+00  0.000000D+00  0.000000D+00  0.000000D+00
     35  0.000000D+00  0.000000D+00  0.000000D+00  0.000000D+00  0.000000D+00
     36  0.000000D+00  0.000000D+00  0.000000D+00  0.000000D+00  0.000000D+00
     37  0.000000D+00  0.000000D+00  0.000000D+00  0.000000D+00  0.000000D+00
     38 -0.171294D+00  0.399001D+00  0.000000D+00  0.000000D+00  0.000000D+00
     39  0.399001D+00  0.171294D+00  0.000000D+00  0.000000D+00  0.000000D+00
     40  0.000000D+00  0.000000D+00  0.000000D+00  0.000000D+00  0.000000D+00
     41  0.000000D+00  0.000000D+00  0.000000D+00  0.000000D+00  0.000000D+00
     42  0.000000D+00  0.000000D+00  0.000000D+00  0.000000D+00  0.000000D+00
     43  0.000000D+00  0.000000D+00  0.000000D+00  0.000000D+00  0.000000D+00
     44  0.000000D+00  0.000000D+00  0.227289D+00  0.000000D+00  0.798692D+00
     45  0.000000D+00  0.000000D+00  0.000000D+00  0.372683D+00  0.000000D+00
     46  0.000000D+00  0.000000D+00  0.000000D+00  0.394035D-01  0.000000D+00
               31            32            33            34            35 
     31  0.000000D+00
     32  0.000000D+00  0.000000D+00
     33  0.000000D+00  0.000000D+00  0.000000D+00
     34  0.000000D+00  0.000000D+00  0.000000D+00  0.000000D+00
     35  0.000000D+00  0.000000D+00  0.000000D+00  0.000000D+00  0.000000D+00
     36  0.000000D+00  0.000000D+00  0.000000D+00 -0.116829D+01  0.822627D+00
     37  0.000000D+00  0.000000D+00  0.000000D+00 -0.822627D+00 -0.116829D+01
     38  0.000000D+00  0.000000D+00  0.000000D+00  0.000000D+00  0.000000D+00
     39  0.000000D+00  0.000000D+00  0.000000D+00  0.000000D+00  0.000000D+00
     40  0.000000D+00 -0.126228D+01 -0.319588D+00  0.000000D+00  0.000000D+00
     41  0.000000D+00  0.319588D+00 -0.126228D+01  0.000000D+00  0.000000D+00
     42  0.000000D+00 -0.471098D+00 -0.463380D+00  0.000000D+00  0.000000D+00
     43  0.000000D+00  0.463380D+00 -0.471098D+00  0.000000D+00  0.000000D+00
     44  0.000000D+00  0.000000D+00  0.000000D+00  0.000000D+00  0.000000D+00
     45  0.887723D+00  0.000000D+00  0.000000D+00  0.000000D+00  0.000000D+00
     46  0.802301D+00  0.000000D+00  0.000000D+00  0.000000D+00  0.000000D+00
               36            37            38            39            40 
     36  0.000000D+00
     37  0.000000D+00  0.000000D+00
     38  0.000000D+00  0.000000D+00  0.000000D+00
     39  0.000000D+00  0.000000D+00  0.000000D+00  0.000000D+00
     40  0.000000D+00  0.000000D+00 -0.129630D+00  0.258718D+00  0.000000D+00
     41  0.000000D+00  0.000000D+00  0.258718D+00  0.129630D+00  0.000000D+00
     42  0.000000D+00  0.000000D+00 -0.880665D-01 -0.135967D+01  0.000000D+00
     43  0.000000D+00  0.000000D+00 -0.135967D+01  0.880665D-01  0.000000D+00
     44  0.000000D+00  0.000000D+00  0.000000D+00  0.000000D+00  0.000000D+00
     45  0.000000D+00  0.000000D+00  0.000000D+00  0.000000D+00  0.000000D+00
     46  0.000000D+00  0.000000D+00  0.000000D+00  0.000000D+00  0.000000D+00
               41            42            43            44            45 
     41  0.000000D+00
     42  0.000000D+00  0.000000D+00
     43  0.000000D+00  0.000000D+00  0.000000D+00
     44  0.000000D+00  0.000000D+00  0.000000D+00  0.000000D+00
     45  0.000000D+00  0.000000D+00  0.000000D+00 -0.913675D+00  0.000000D+00
     46  0.000000D+00  0.000000D+00  0.000000D+00  0.106511D+01  0.000000D+00
               46 
     46  0.000000D+00
 All to All state transition transition dipole moments (Au):
     state I   state J         X           Y           Z
         0        0         -0.3487957565471E-15       0.1141252158498E-15       0.2328081103088E-13
         0        1          0.2476111302224E-14      -0.2073866759861E-14       -2.032325902879    
         1        1         -0.8174514468450E-14       0.2021736017993E-14       0.3634932452465E-13
         0        2         -0.1896785083952E-14       0.1064749025381E-14      -0.6757782152275E-14
         1        2          0.2323616487408E-14      -0.2697785403632E-14       -2.180533560299    
         2        2         -0.3124364241662E-14       0.1051149667351E-14      -0.1598049818481E-13
         0        3         -0.3365140554436E-13       0.6864860165349E-14       0.8078844241437    
         1        3         -0.4357900187513E-15       0.1800890409516E-15       0.2311517769912E-13
         2        3         -0.3299790178999E-13       0.6489352247514E-14       -3.242982243990    
         3        3          0.4535124017402E-15      -0.2765510465325E-16       0.2932527585857E-14
         0        4         -0.4478953814139           -1.379171643902          -0.1405969455818E-14
         1        4          0.2202971455552E-14       0.5219484959091E-14      -0.7339046854774E-15
         2        4         -0.4408839962643           -1.357581995998           0.8558838413656E-14
[...]

 CI (t =     24.03887 fs)
 Step =                 9938
 Current electric field (a.u.):
   Ex=  0.0000000   Ey=  0.0000000   Ez=  0.0006443
 CI Dipole moment (au):
    X=    -0.2062499359E-14    Y=     0.1306109587E-14    Z=     0.2142573110E-01 Tot =    0.2142573110E-01
 Energy =       -1.004643533804    

 CI (t =     24.04129 fs)
 Step =                 9939
 Current electric field (a.u.):
   Ex=  0.0000000   Ey=  0.0000000   Ez=  0.0006388
 CI Dipole moment (au):
    X=    -0.6678825808E-15    Y=     0.3795982485E-15    Z=     0.2123880102E-01 Tot =    0.2123880102E-01
 Energy =       -1.004643653523    

 CI (t =     24.04371 fs)
 Step =                 9940
 Current electric field (a.u.):
   Ex=  0.0000000   Ey=  0.0000000   Ez=  0.0006332
 CI Dipole moment (au):
    X=     0.7470071272E-15    Y=    -0.5494463532E-15    Z=     0.2105095160E-01 Tot =    0.2105095160E-01
 Energy =       -1.004643772779    

 CI (t =     24.04613 fs)
 Step =                 9941
 Current electric field (a.u.):
   Ex=  0.0000000   Ey=  0.0000000   Ez=  0.0006276
 CI Dipole moment (au):
    X=     0.2180195493E-14    Y=    -0.1479077483E-14    Z=     0.2086219314E-01 Tot =    0.2086219314E-01
 Energy =       -1.004643891550    

 CI (t =     24.04855 fs)
 Step =                 9942
 Current electric field (a.u.):
   Ex=  0.0000000   Ey=  0.0000000   Ez=  0.0006220
 CI Dipole moment (au):
    X=     0.3626370031E-14    Y=    -0.2406699886E-14    Z=     0.2067253584E-01 Tot =    0.2067253584E-01
 Energy =       -1.004644009813    

 CI (t =     24.05097 fs)
 Step =                 9943
 Current electric field (a.u.):
   Ex=  0.0000000   Ey=  0.0000000   Ez=  0.0006163
 CI Dipole moment (au):
    X=     0.5077287493E-14    Y=    -0.3329137750E-14    Z=     0.2048198977E-01 Tot =    0.2048198977E-01
 Energy =       -1.004644127546    

 CI (t =     24.05339 fs)
 Step =                 9944
 Current electric field (a.u.):
   Ex=  0.0000000   Ey=  0.0000000   Ez=  0.0006107
 CI Dipole moment (au):
    X=     0.6522668405E-14    Y=    -0.4242797174E-14    Z=     0.2029056490E-01 Tot =    0.2029056490E-01
 Energy =       -1.004644244727    

 CI (t =     24.05580 fs)
 Step =                 9945
 Current electric field (a.u.):
   Ex=  0.0000000   Ey=  0.0000000   Ez=  0.0006049
 CI Dipole moment (au):
    X=     0.7951434827E-14    Y=    -0.5143896965E-14    Z=     0.2009827108E-01 Tot =    0.2009827108E-01
 Energy =       -1.004644361333    

 CI (t =     24.05822 fs)
 Step =                 9946
 Current electric field (a.u.):
   Ex=  0.0000000   Ey=  0.0000000   Ez=  0.0005992
 CI Dipole moment (au):
    X=     0.9353091001E-14    Y=    -0.6028730732E-14    Z=     0.1990511803E-01 Tot =    0.1990511803E-01
 Energy =       -1.004644477343    

 CI (t =     24.06064 fs)
 Step =                 9947
 Current electric field (a.u.):
   Ex=  0.0000000   Ey=  0.0000000   Ez=  0.0005934
 CI Dipole moment (au):
    X=     0.1071902291E-13    Y=    -0.6893918424E-14    Z=     0.1971111539E-01 Tot =    0.1971111539E-01
 Energy =       -1.004644592736    

 CI (t =     24.06306 fs)
 Step =                 9948
 Current electric field (a.u.):
   Ex=  0.0000000   Ey=  0.0000000   Ez=  0.0005876
 CI Dipole moment (au):
    X=     0.1204350568E-13    Y=    -0.7736607423E-14    Z=     0.1951627265E-01 Tot =    0.1951627265E-01
 Energy =       -1.004644707489    

 CI (t =     24.06548 fs)
 Step =                 9949
 Current electric field (a.u.):
   Ex=  0.0000000   Ey=  0.0000000   Ez=  0.0005818
 CI Dipole moment (au):
    X=     0.1332425519E-13    Y=    -0.8554591728E-14    Z=     0.1932059921E-01 Tot =    0.1932059921E-01
 Energy =       -1.004644821583    

 CI (t =     24.06790 fs)
 Step =                 9950
 Current electric field (a.u.):
   Ex=  0.0000000   Ey=  0.0000000   Ez=  0.0005759
 CI Dipole moment (au):
    X=     0.1456243468E-13    Y=    -0.9346331248E-14    Z=     0.1912410436E-01 Tot =    0.1912410436E-01
 Energy =       -1.004644934995    

 CI (t =     24.07032 fs)
 Step =                 9951
 Current electric field (a.u.):
   Ex=  0.0000000   Ey=  0.0000000   Ez=  0.0005700
 CI Dipole moment (au):
    X=     0.1576211585E-13    Y=    -0.1011086958E-13    Z=     0.1892679726E-01 Tot =    0.1892679726E-01
 Energy =       -1.004645047706    

 CI (t =     24.07274 fs)
 Step =                 9952
 Current electric field (a.u.):
   Ex=  0.0000000   Ey=  0.0000000   Ez=  0.0005641
 CI Dipole moment (au):
    X=     0.1692928318E-13    Y=    -0.1084766522E-13    Z=     0.1872868699E-01 Tot =    0.1872868699E-01
 Energy =       -1.004645159695    

 CI (t =     24.07516 fs)
 Step =                 9953
 Current electric field (a.u.):
   Ex=  0.0000000   Ey=  0.0000000   Ez=  0.0005581
 CI Dipole moment (au):
    X=     0.1807054473E-13    Y=    -0.1155636514E-13    Z=     0.1852978251E-01 Tot =    0.1852978251E-01
 Energy =       -1.004645270941    

 CI (t =     24.07757 fs)
 Step =                 9954
 Current electric field (a.u.):
   Ex=  0.0000000   Ey=  0.0000000   Ez=  0.0005521
 CI Dipole moment (au):
    X=     0.1919176063E-13    Y=    -0.1223655919E-13    Z=     0.1833009265E-01 Tot =    0.1833009265E-01
 Energy =       -1.004645381424    

 CI (t =     24.07999 fs)
 Step =                 9955
 Current electric field (a.u.):
   Ex=  0.0000000   Ey=  0.0000000   Ez=  0.0005461
 CI Dipole moment (au):
    X=     0.2029681384E-13    Y=    -0.1288755662E-13    Z=     0.1812962616E-01 Tot =    0.1812962616E-01
 Energy =       -1.004645491126    

 CI (t =     24.08241 fs)
 Step =                 9956
 Current electric field (a.u.):
   Ex=  0.0000000   Ey=  0.0000000   Ez=  0.0005400
 CI Dipole moment (au):
    X=     0.2138672460E-13    Y=    -0.1350822249E-13    Z=     0.1792839169E-01 Tot =    0.1792839169E-01
 Energy =       -1.004645600025    

 CI (t =     24.08483 fs)
 Step =                 9957
 Current electric field (a.u.):
   Ex=  0.0000000   Ey=  0.0000000   Ez=  0.0005340
 CI Dipole moment (au):
    X=     0.2245925351E-13    Y=    -0.1409690196E-13    Z=     0.1772639778E-01 Tot =    0.1772639778E-01
 Energy =       -1.004645708103    

 CI (t =     24.08725 fs)
 Step =                 9958
 Current electric field (a.u.):
   Ex=  0.0000000   Ey=  0.0000000   Ez=  0.0005279
 CI Dipole moment (au):
    X=     0.2350905829E-13    Y=    -0.1465144623E-13    Z=     0.1752365284E-01 Tot =    0.1752365284E-01
 Energy =       -1.004645815340    

 CI (t =     24.08967 fs)
 Step =                 9959
 Current electric field (a.u.):
   Ex=  0.0000000   Ey=  0.0000000   Ez=  0.0005217
 CI Dipole moment (au):
    X=     0.2452837848E-13    Y=    -0.1516933719E-13    Z=     0.1732016524E-01 Tot =    0.1732016524E-01
 Energy =       -1.004645921717    

 CI (t =     24.09209 fs)
 Step =                 9960
 Current electric field (a.u.):
   Ex=  0.0000000   Ey=  0.0000000   Ez=  0.0005156
 CI Dipole moment (au):
    X=     0.2550813565E-13    Y=    -0.1564789219E-13    Z=     0.1711594319E-01 Tot =    0.1711594319E-01
 Energy =       -1.004646027216    

 CI (t =     24.09451 fs)
 Step =                 9961
 Current electric field (a.u.):
   Ex=  0.0000000   Ey=  0.0000000   Ez=  0.0005094
 CI Dipole moment (au):
    X=     0.2643926869E-13    Y=    -0.1608451728E-13    Z=     0.1691099485E-01 Tot =    0.1691099485E-01
 Energy =       -1.004646131818    

 CI (t =     24.09693 fs)
 Step =                 9962
 Current electric field (a.u.):
   Ex=  0.0000000   Ey=  0.0000000   Ez=  0.0005032
 CI Dipole moment (au):
    X=     0.2731408454E-13    Y=    -0.1647696956E-13    Z=     0.1670532827E-01 Tot =    0.1670532827E-01
 Energy =       -1.004646235504    

 CI (t =     24.09934 fs)
 Step =                 9963
 Current electric field (a.u.):
   Ex=  0.0000000   Ey=  0.0000000   Ez=  0.0004970
 CI Dipole moment (au):
    X=     0.2812740217E-13    Y=    -0.1682358787E-13    Z=     0.1649895140E-01 Tot =    0.1649895140E-01
 Energy =       -1.004646338256    

 CI (t =     24.10176 fs)
 Step =                 9964
 Current electric field (a.u.):
   Ex=  0.0000000   Ey=  0.0000000   Ez=  0.0004907
 CI Dipole moment (au):
    X=     0.2887730088E-13    Y=    -0.1712345651E-13    Z=     0.1629187212E-01 Tot =    0.1629187212E-01
 Energy =       -1.004646440057    

 CI (t =     24.10418 fs)
 Step =                 9965
 Current electric field (a.u.):
   Ex=  0.0000000   Ey=  0.0000000   Ez=  0.0004844
 CI Dipole moment (au):
    X=     0.2956534838E-13    Y=    -0.1737647736E-13    Z=     0.1608409822E-01 Tot =    0.1608409822E-01
 Energy =       -1.004646540888    

 CI (t =     24.10660 fs)
 Step =                 9966
 Current electric field (a.u.):
   Ex=  0.0000000   Ey=  0.0000000   Ez=  0.0004781
 CI Dipole moment (au):
    X=     0.3019626919E-13    Y=    -0.1758334063E-13    Z=     0.1587563738E-01 Tot =    0.1587563738E-01
 Energy =       -1.004646640732    

 CI (t =     24.10902 fs)
 Step =                 9967
 Current electric field (a.u.):
   Ex=  0.0000000   Ey=  0.0000000   Ez=  0.0004718
 CI Dipole moment (au):
    X=     0.3077710495E-13    Y=    -0.1774540104E-13    Z=     0.1566649722E-01 Tot =    0.1566649722E-01
 Energy =       -1.004646739572    

 CI (t =     24.11144 fs)
 Step =                 9968
 Current electric field (a.u.):
   Ex=  0.0000000   Ey=  0.0000000   Ez=  0.0004654
 CI Dipole moment (au):
    X=     0.3131600177E-13    Y=    -0.1786448083E-13    Z=     0.1545668529E-01 Tot =    0.1545668529E-01
 Energy =       -1.004646837390    

 CI (t =     24.11386 fs)
 Step =                 9969
 Current electric field (a.u.):
   Ex=  0.0000000   Ey=  0.0000000   Ez=  0.0004590
 CI Dipole moment (au):
    X=     0.3182082053E-13    Y=    -0.1794263305E-13    Z=     0.1524620904E-01 Tot =    0.1524620904E-01
 Energy =       -1.004646934169    

 CI (t =     24.11628 fs)
 Step =                 9970
 Current electric field (a.u.):
   Ex=  0.0000000   Ey=  0.0000000   Ez=  0.0004526
 CI Dipole moment (au):
    X=     0.3229779546E-13    Y=    -0.1798190407E-13    Z=     0.1503507584E-01 Tot =    0.1503507584E-01
 Energy =       -1.004647029893    

 CI (t =     24.11870 fs)
 Step =                 9971
 Current electric field (a.u.):
   Ex=  0.0000000   Ey=  0.0000000   Ez=  0.0004462
 CI Dipole moment (au):
    X=     0.3275045880E-13    Y=    -0.1798413409E-13    Z=     0.1482329303E-01 Tot =    0.1482329303E-01
 Energy =       -1.004647124544    

 CI (t =     24.12111 fs)
 Step =                 9972
 Current electric field (a.u.):
   Ex=  0.0000000   Ey=  0.0000000   Ez=  0.0004397
 CI Dipole moment (au):
    X=     0.3317900602E-13    Y=    -0.1795082767E-13    Z=     0.1461086782E-01 Tot =    0.1461086782E-01
 Energy =       -1.004647218107    

 CI (t =     24.12353 fs)
 Step =                 9973
 Current electric field (a.u.):
   Ex=  0.0000000   Ey=  0.0000000   Ez=  0.0004332
 CI Dipole moment (au):
    X=     0.3358020472E-13    Y=    -0.1788311409E-13    Z=     0.1439780741E-01 Tot =    0.1439780741E-01
 Energy =       -1.004647310566    

 CI (t =     24.12595 fs)
 Step =                 9974
 Current electric field (a.u.):
   Ex=  0.0000000   Ey=  0.0000000   Ez=  0.0004267
 CI Dipole moment (au):
    X=     0.3394786149E-13    Y=    -0.1778180254E-13    Z=     0.1418411890E-01 Tot =    0.1418411890E-01
 Energy =       -1.004647401904    

 CI (t =     24.12837 fs)
 Step =                 9975
 Current electric field (a.u.):
   Ex=  0.0000000   Ey=  0.0000000   Ez=  0.0004202
 CI Dipole moment (au):
    X=     0.3427377031E-13    Y=    -0.1764752099E-13    Z=     0.1396980935E-01 Tot =    0.1396980935E-01
 Energy =       -1.004647492105    

 CI (t =     24.13079 fs)
 Step =                 9976
 Current electric field (a.u.):
   Ex=  0.0000000   Ey=  0.0000000   Ez=  0.0004137
 CI Dipole moment (au):
    X=     0.3454898748E-13    Y=    -0.1748091369E-13    Z=     0.1375488575E-01 Tot =    0.1375488575E-01
 Energy =       -1.004647581154    

 CI (t =     24.13321 fs)
 Step =                 9977
 Current electric field (a.u.):
   Ex=  0.0000000   Ey=  0.0000000   Ez=  0.0004071
 CI Dipole moment (au):
    X=     0.3476522457E-13    Y=    -0.1728286255E-13    Z=     0.1353935504E-01 Tot =    0.1353935504E-01
 Energy =       -1.004647669035    

 CI (t =     24.13563 fs)
 Step =                 9978
 Current electric field (a.u.):
   Ex=  0.0000000   Ey=  0.0000000   Ez=  0.0004005
 CI Dipole moment (au):
    X=     0.3491613204E-13    Y=    -0.1705469321E-13    Z=     0.1332322413E-01 Tot =    0.1332322413E-01
 Energy =       -1.004647755734    

 CI (t =     24.13805 fs)
 Step =                 9979
 Current electric field (a.u.):
   Ex=  0.0000000   Ey=  0.0000000   Ez=  0.0003939
 CI Dipole moment (au):
    X=     0.3499826360E-13    Y=    -0.1679832947E-13    Z=     0.1310649986E-01 Tot =    0.1310649986E-01
 Energy =       -1.004647841234    

 CI (t =     24.14047 fs)
 Step =                 9980
 Current electric field (a.u.):
   Ex=  0.0000000   Ey=  0.0000000   Ez=  0.0003873
 CI Dipole moment (au):
    X=     0.3501156390E-13    Y=    -0.1651636752E-13    Z=     0.1288918905E-01 Tot =    0.1288918905E-01
 Energy =       -1.004647925522    

 CI (t =     24.14288 fs)
 Step =                 9981
 Current electric field (a.u.):
   Ex=  0.0000000   Ey=  0.0000000   Ez=  0.0003806
 CI Dipole moment (au):
    X=     0.3495929970E-13    Y=    -0.1621205476E-13    Z=     0.1267129846E-01 Tot =    0.1267129846E-01
 Energy =       -1.004648008582    

 CI (t =     24.14530 fs)
 Step =                 9982
 Current electric field (a.u.):
   Ex=  0.0000000   Ey=  0.0000000   Ez=  0.0003740
 CI Dipole moment (au):
    X=     0.3484744596E-13    Y=    -0.1588917330E-13    Z=     0.1245283484E-01 Tot =    0.1245283484E-01
 Energy =       -1.004648090401    

 CI (t =     24.14772 fs)
 Step =                 9983
 Current electric field (a.u.):
   Ex=  0.0000000   Ey=  0.0000000   Ez=  0.0003673
 CI Dipole moment (au):
    X=     0.3468362746E-13    Y=    -0.1555184338E-13    Z=     0.1223380490E-01 Tot =    0.1223380490E-01
 Energy =       -1.004648170962    

 CI (t =     24.15014 fs)
 Step =                 9984
 Current electric field (a.u.):
   Ex=  0.0000000   Ey=  0.0000000   Ez=  0.0003606
 CI Dipole moment (au):
    X=     0.3447578915E-13    Y=    -0.1520427519E-13    Z=     0.1201421533E-01 Tot =    0.1201421533E-01
 Energy =       -1.004648250254    

 CI (t =     24.15256 fs)
 Step =                 9985
 Current electric field (a.u.):
   Ex=  0.0000000   Ey=  0.0000000   Ez=  0.0003539
 CI Dipole moment (au):
    X=     0.3423081360E-13    Y=    -0.1485050538E-13    Z=     0.1179407280E-01 Tot =    0.1179407280E-01
 Energy =       -1.004648328261    

 CI (t =     24.15498 fs)
 Step =                 9986
 Current electric field (a.u.):
   Ex=  0.0000000   Ey=  0.0000000   Ez=  0.0003471
 CI Dipole moment (au):
    X=     0.3395331233E-13    Y=    -0.1449415692E-13    Z=     0.1157338395E-01 Tot =    0.1157338395E-01
 Energy =       -1.004648404970    

 CI (t =     24.15740 fs)
 Step =                 9987
 Current electric field (a.u.):
   Ex=  0.0000000   Ey=  0.0000000   Ez=  0.0003403
 CI Dipole moment (au):
    X=     0.3364479044E-13    Y=    -0.1413825683E-13    Z=     0.1135215543E-01 Tot =    0.1135215543E-01
 Energy =       -1.004648480368    

 CI (t =     24.15982 fs)
 Step =                 9988
 Current electric field (a.u.):
   Ex=  0.0000000   Ey=  0.0000000   Ez=  0.0003336
 CI Dipole moment (au):
    X=     0.3330332279E-13    Y=    -0.1378513678E-13    Z=     0.1113039386E-01 Tot =    0.1113039386E-01
 Energy =       -1.004648554440    

 CI (t =     24.16224 fs)
 Step =                 9989
 Current electric field (a.u.):
   Ex=  0.0000000   Ey=  0.0000000   Ez=  0.0003268
 CI Dipole moment (au):
    X=     0.3292379723E-13    Y=    -0.1343642764E-13    Z=     0.1090810586E-01 Tot =    0.1090810586E-01
 Energy =       -1.004648627174    

 CI (t =     24.16465 fs)
 Step =                 9990
 Current electric field (a.u.):
   Ex=  0.0000000   Ey=  0.0000000   Ez=  0.0003200
 CI Dipole moment (au):
    X=     0.3249868785E-13    Y=    -0.1309314385E-13    Z=     0.1068529805E-01 Tot =    0.1068529805E-01
 Energy =       -1.004648698557    

 CI (t =     24.16707 fs)
 Step =                 9991
 Current electric field (a.u.):
   Ex=  0.0000000   Ey=  0.0000000   Ez=  0.0003131
 CI Dipole moment (au):
    X=     0.3201923471E-13    Y=    -0.1275583898E-13    Z=     0.1046197706E-01 Tot =    0.1046197706E-01
 Energy =       -1.004648768575    

 CI (t =     24.16949 fs)
 Step =                 9992
 Current electric field (a.u.):
   Ex=  0.0000000   Ey=  0.0000000   Ez=  0.0003063
 CI Dipole moment (au):
    X=     0.3147684030E-13    Y=    -0.1242480224E-13    Z=     0.1023814952E-01 Tot =    0.1023814952E-01
 Energy =       -1.004648837217    

 CI (t =     24.17191 fs)
 Step =                 9993
 Current electric field (a.u.):
   Ex=  0.0000000   Ey=  0.0000000   Ez=  0.0002994
 CI Dipole moment (au):
    X=     0.3086445754E-13    Y=    -0.1210025956E-13    Z=     0.1001382206E-01 Tot =    0.1001382206E-01
 Energy =       -1.004648904470    

 CI (t =     24.17433 fs)
 Step =                 9994
 Current electric field (a.u.):
   Ex=  0.0000000   Ey=  0.0000000   Ez=  0.0002925
 CI Dipole moment (au):
    X=     0.3017774510E-13    Y=    -0.1178254263E-13    Z=     0.9789001341E-02 Tot =    0.9789001341E-02
 Energy =       -1.004648970321    

 CI (t =     24.17675 fs)
 Step =                 9995
 Current electric field (a.u.):
   Ex=  0.0000000   Ey=  0.0000000   Ez=  0.0002856
 CI Dipole moment (au):
    X=     0.2941580376E-13    Y=    -0.1147219499E-13    Z=     0.9563694026E-02 Tot =    0.9563694026E-02
 Energy =       -1.004649034759    

 CI (t =     24.17917 fs)
 Step =                 9996
 Current electric field (a.u.):
   Ex=  0.0000000   Ey=  0.0000000   Ez=  0.0002787
 CI Dipole moment (au):
    X=     0.2858137550E-13    Y=    -0.1116999545E-13    Z=     0.9337906806E-02 Tot =    0.9337906806E-02
 Energy =       -1.004649097771    

 CI (t =     24.18159 fs)
 Step =                 9997
 Current electric field (a.u.):
   Ex=  0.0000000   Ey=  0.0000000   Ez=  0.0002718
 CI Dipole moment (au):
    X=     0.2768047440E-13    Y=    -0.1087689311E-13    Z=     0.9111646397E-02 Tot =    0.9111646397E-02
 Energy =       -1.004649159347    

 CI (t =     24.18401 fs)
 Step =                 9998
 Current electric field (a.u.):
   Ex=  0.0000000   Ey=  0.0000000   Ez=  0.0002649
 CI Dipole moment (au):
    X=     0.2672151097E-13    Y=    -0.1059386365E-13    Z=     0.8884919542E-02 Tot =    0.8884919542E-02
 Energy =       -1.004649219473    

 CI (t =     24.18642 fs)
 Step =                 9999
 Current electric field (a.u.):
   Ex=  0.0000000   Ey=  0.0000000   Ez=  0.0002579
 CI Dipole moment (au):
    X=     0.2571405379E-13    Y=    -0.1032170999E-13    Z=     0.8657733016E-02 Tot =    0.8657733016E-02
 Energy =       -1.004649278140    

 CI (t =     24.18884 fs)
 Step =                10000
 Current electric field (a.u.):
   Ex=  0.0000000   Ey=  0.0000000   Ez=  0.0002510
 CI Dipole moment (au):
    X=     0.2466743140E-13    Y=    -0.1006084022E-13    Z=     0.8430093633E-02 Tot =    0.8430093633E-02
 Energy =       -1.004649335336    
 Leave Link  912 at Tue Dec 20 08:04:17 2016, MaxMem=  1610612736 cpu:             273.1 elap:              34.2
 (Enter /home1/gaussian/gdv/I03P/gdv/l9999.exe)

 This type of calculation cannot be archived.


 GOORD'S AXIOM:  A MEETING IS AN EVENT AT WHICH
 THE MINUTES ARE KEPT AND THE HOURS ARE LOST.
 Job cpu time:       0 days  0 hours  4 minutes 40.9 seconds.
 Elapsed time:       0 days  0 hours  0 minutes 35.2 seconds.
 File lengths (MBytes):  RWF=     13 Int=      2 D2E=      0 Chk=      1 Scr=      1
 Normal termination of Gaussian DV at Tue Dec 20 08:04:17 2016.
