 Entering Gaussian System, Link 0=gdv
 Input=h2-2Az.gjf
 Output=h2-2Az.log
 Initial command:
 /home1/gaussian/gdv/I03P/gdv/l1.exe "/state/partition1/597573.1.stf_r620.q/Gau-6455.inp" -scrdir="/state/partition1/597573.1.stf_r620.q/"
 Entering Link 1 = /home1/gaussian/gdv/I03P/gdv/l1.exe PID=      6456.
  
 Copyright (c) 1988,1990,1992,1993,1995,1998,2003,2009,2015,
            Gaussian, Inc.  All Rights Reserved.
  
 This is the private, development version of
 the Gaussian(R) DV system of programs. It is based on
 the Gaussian(R) 09 system (copyright 2009, Gaussian, Inc.),
 the Gaussian(R) 03 system (copyright 2003, Gaussian, Inc.),
 the Gaussian(R) 98 system (copyright 1998, Gaussian, Inc.),
 the Gaussian(R) 94 system (copyright 1995, Gaussian, Inc.),
 the Gaussian 92(TM) system (copyright 1992, Gaussian, Inc.),
 the Gaussian 90(TM) system (copyright 1990, Gaussian, Inc.),
 the Gaussian 88(TM) system (copyright 1988, Gaussian, Inc.),
 the Gaussian 86(TM) system (copyright 1986, Carnegie Mellon
 University), and the Gaussian 82(TM) system (copyright 1983,
 Carnegie Mellon University). Gaussian is a federally registered
 trademark of Gaussian, Inc.
  
 This software contains proprietary and confidential information,
 including trade secrets, belonging to Gaussian, Inc.
  
 This software is provided under written license and may be
 used, copied, transmitted, or stored only in accord with that
 written license.
  
 The following legend is applicable only to US Government
 contracts under FAR:
  
                    RESTRICTED RIGHTS LEGEND
  
 Use, reproduction and disclosure by the US Government is
 subject to restrictions as set forth in subparagraphs (a)
 and (c) of the Commercial Computer Software - Restricted
 Rights clause in FAR 52.227-19.
  
 Gaussian, Inc.
 340 Quinnipiac St., Bldg. 40, Wallingford CT 06492
  
  
 ---------------------------------------------------------------
 Warning -- This program may not be used in any manner that
 competes with the business of Gaussian, Inc. or will provide
 assistance to any competitor of Gaussian, Inc.  The licensee
 of this program is prohibited from giving any competitor of
 Gaussian, Inc. access to this program.  By using this program,
 the user acknowledges that Gaussian, Inc. is engaged in the
 business of creating and licensing software in the field of
 computational chemistry and represents and warrants to the
 licensee that it is not a competitor of Gaussian, Inc. and that
 it will not use this program in any manner prohibited above.
 ---------------------------------------------------------------
  

 Cite this work as:
 Gaussian Development Version, Revision I.03+,
 M. J. Frisch, G. W. Trucks, H. B. Schlegel, G. E. Scuseria, 
 M. A. Robb, J. R. Cheeseman, G. Scalmani, V. Barone, B. Mennucci, 
 G. A. Petersson, H. Nakatsuji, M. Caricato, X. Li, H. P. Hratchian, 
 J. Bloino, B. G. Janesko, A. F. Izmaylov, A. Marenich, F. Lipparini, 
 G. Zheng, J. L. Sonnenberg, W. Liang, M. Hada, M. Ehara, K. Toyota, 
 R. Fukuda, J. Hasegawa, M. Ishida, T. Nakajima, Y. Honda, O. Kitao, 
 H. Nakai, T. Vreven, K. Throssell, J. A. Montgomery, Jr., 
 J. E. Peralta, F. Ogliaro, M. Bearpark, J. J. Heyd, E. Brothers, 
 K. N. Kudin, V. N. Staroverov, T. Keith, R. Kobayashi, J. Normand, 
 K. Raghavachari, A. Rendell, J. C. Burant, S. S. Iyengar, J. Tomasi, 
 M. Cossi, N. Rega, J. M. Millam, M. Klene, J. E. Knox, J. B. Cross, 
 V. Bakken, C. Adamo, J. Jaramillo, R. Gomperts, R. E. Stratmann, 
 O. Yazyev, A. J. Austin, R. Cammi, C. Pomelli, J. W. Ochterski, 
 R. L. Martin, K. Morokuma, V. G. Zakrzewski, G. A. Voth, 
 P. Salvador, J. J. Dannenberg, S. Dapprich, P. V. Parandekar, 
 N. J. Mayhall, A. D. Daniels, O. Farkas, J. B. Foresman, 
 J. V. Ortiz, J. Cioslowski, and D. J. Fox, 
 Gaussian, Inc., Wallingford CT, 2014.
 
 *******************************************
 Gaussian DV:  ES64L-GDVRevI.03+  2-May-2015
                 20-Dec-2016 
 *******************************************
 %chk=h2-2Az.chk
 %subst l912 /home2/plestran/devel/guga
 %mem=12GB
 %nproc=8
 Will use up to    8 processors via shared memory.
 ----------------------------------------------------------------------
 #p nonstd 1/38=1/1; 2/12=2,15=1,17=6,18=5,40=1/2; 3/5=16,6=1,7=10,25=2
 0,30=1/1,2,3,20; 4//1; 5/5=2,38=5/2; 8/6=3,9=120000,10=1/1,4; 9/1=1638
 4,5=1,7=46,14=1,15=10000,16=10000,17=2,33=0/12; 99/5=1,9=1/99;
 ----------------------------------------------------------------------
 1/38=1/1;
 2/12=2,15=1,17=6,18=5,40=1/2;
 3/5=16,6=1,7=10,25=20,30=1/1,2,3,20;
 4//1;
 5/5=2,38=5/2;
 8/6=3,9=120000,10=1/1,4;
 9/1=16384,5=1,7=46,14=1,15=10000,16=10000,17=2/12;
 99/5=1,9=1/99;
 Leave Link    1 at Tue Dec 20 08:06:06 2016, MaxMem=  1610612736 cpu:               0.3 elap:               0.0
 (Enter /home1/gaussian/gdv/I03P/gdv/l101.exe)
 ----------------------------------------------------------------------
 H2 TD-ROCIS polarizibility using 632.8 nm light (1.9593 eV) w/ 0.001 a
 .u. intensity (3.51E13 W/cm2) for Keldysh=1.927 Time Step = 0.1 au (0.
 0024 fs) for 1000 steps (~24 fs) Linear ramp for 1 cycle and then cons
 tant for rest of sim
 ----------------------------------------------------------------------
 Symbolic Z-matrix:
 Charge =  0 Multiplicity = 1
 H                     0.        0.        0.75 
 H                     0.        0.       -0.75 
 
 ITRead=  0  0
 MicOpt= -1 -1
 NAtoms=      2 NQM=        2 NQMF=       0 NMMI=      0 NMMIF=      0
                NMic=       0 NMicF=      0.
                    Isotopes and Nuclear Properties:
 (Nuclear quadrupole moments (NQMom) in fm**2, nuclear magnetic moments (NMagM)
  in nuclear magnetons)

  Atom         1           2
 IAtWgt=           1           1
 AtmWgt=   1.0078250   1.0078250
 NucSpn=           1           1
 AtZEff=   0.0000000   0.0000000
 NQMom=    0.0000000   0.0000000
 NMagM=    2.7928460   2.7928460
 AtZNuc=   1.0000000   1.0000000
 Leave Link  101 at Tue Dec 20 08:06:06 2016, MaxMem=  1610612736 cpu:               0.9 elap:               0.1
 (Enter /home1/gaussian/gdv/I03P/gdv/l202.exe)
                          Input orientation:                          
 ---------------------------------------------------------------------
 Center     Atomic      Atomic             Coordinates (Angstroms)
 Number     Number       Type             X           Y           Z
 ---------------------------------------------------------------------
      1          1           0        0.000000    0.000000    0.750000
      2          1           0        0.000000    0.000000   -0.750000
 ---------------------------------------------------------------------
 Symmetry turned off by external request.
 Stoichiometry    H2
 Framework group  D*H[C*(H.H)]
 Deg. of freedom     1
 Full point group                 D*H     NOp   8
 Rotational constants (GHZ):      0.0000000    445.7378706    445.7378706
 Leave Link  202 at Tue Dec 20 08:06:06 2016, MaxMem=  1610612736 cpu:               0.1 elap:               0.0
 (Enter /home1/gaussian/gdv/I03P/gdv/l301.exe)
 Standard basis: Aug-CC-pVTZ (5D, 7F)
 Ernie: Thresh=  0.10000D-02 Tol=  0.10000D-05 Strict=F.
    46 basis functions,    54 primitive gaussians,    50 cartesian basis functions
     1 alpha electrons        1 beta electrons
       nuclear repulsion energy         0.3527848073 Hartrees.
 IExCor=    0 DFT=F Ex=HF Corr=None ExCW=0 ScaHFX=  1.000000
 ScaDFX=  1.000000  1.000000  1.000000  1.000000 ScalE2=  1.000000  1.000000
 IRadAn=      0 IRanWt=     -1 IRanGd=            0 ICorTp=0 IEmpDi=  4
 NAtoms=    2 NActive=    2 NUniq=    2 SFac= 1.00D+00 NAtFMM=   60 NAOKFM=F Big=F
 Integral buffers will be    131072 words long.
 Regular integral format.
 Two-electron integral symmetry is turned off.
 Leave Link  301 at Tue Dec 20 08:06:06 2016, MaxMem=  1610612736 cpu:               0.5 elap:               0.1
 (Enter /home1/gaussian/gdv/I03P/gdv/l302.exe)
 NPDir=0 NMtPBC=     1 NCelOv=     1 NCel=       1 NClECP=     1 NCelD=      1
         NCelK=      1 NCelE2=     1 NClLst=     1 CellRange=     0.0.
 One-electron integrals computed using PRISM.
 One-electron integral symmetry used in STVInt
 NBasis=    46 RedAO= T EigKep=  1.54D-03  NBF=    46
 NBsUse=    46 1.00D-06 EigRej= -1.00D+00 NBFU=    46
 Leave Link  302 at Tue Dec 20 08:06:07 2016, MaxMem=  1610612736 cpu:               2.9 elap:               0.5
 (Enter /home1/gaussian/gdv/I03P/gdv/l303.exe)
 DipDrv:  MaxL=1.
 Leave Link  303 at Tue Dec 20 08:06:07 2016, MaxMem=  1610612736 cpu:               0.5 elap:               0.1
 (Enter /home1/gaussian/gdv/I03P/gdv/l320.exe)
 Enter DskPsm, NBasis=  46 NBas6D=  50 NShell=  18 IDoSP=4.
 Out2e will use a cutoff of  1.00D-10
 FoFCou: FMM=F IPFlag=           0 FMFlag=           0 FMFlg1=           0
         NFxFlg=           0 DoJE=F BraDBF=F KetDBF=F FulRan=T
         wScrn=  0.000000 ICntrl=       600 IOpCl=  9 I1Cent=           0 NGrid=           0
         NMat0=    0 NMatS0=      0 NMatT0=    0 NMatD0=    0 NMtDS0=    0 NMtDT0=    0
 Symmetry not used in FoFCou.
       129929 integrals produced for a total of       129929.
 Leave Link  320 at Tue Dec 20 08:06:08 2016, MaxMem=  1610612736 cpu:               1.1 elap:               0.1
 (Enter /home1/gaussian/gdv/I03P/gdv/l401.exe)
 ExpMin= 2.53D-02 ExpMax= 3.39D+01 ExpMxC= 3.39D+01 IAcc=3 IRadAn=         5 AccDes= 0.00D+00
 Harris functional with IExCor=  205 and IRadAn=       5 diagonalized for initial guess.
 HarFok:  IExCor=  205 AccDes= 0.00D+00 IRadAn=         5 IDoV= 1 UseB2=F ITyADJ=14
 ICtDFT=  3500011 ScaDFX=  1.000000  1.000000  1.000000  1.000000
 FoFCou: FMM=F IPFlag=           0 FMFlag=      100000 FMFlg1=           0
         NFxFlg=           0 DoJE=T BraDBF=F KetDBF=T FulRan=T
         wScrn=  0.000000 ICntrl=       500 IOpCl=  0 I1Cent=   200000004 NGrid=           0
         NMat0=    1 NMatS0=      1 NMatT0=    0 NMatD0=    1 NMtDS0=    0 NMtDT0=    0
 Symmetry not used in FoFCou.
 Harris En= -1.07292250501878    
 JPrj=0 DoOrth=F DoCkMO=F.
 Leave Link  401 at Tue Dec 20 08:06:08 2016, MaxMem=  1610612736 cpu:               4.5 elap:               0.7
 (Enter /home1/gaussian/gdv/I03P/gdv/l502.exe)
 Keep R1 ints in memory in canonical form, NReq=2233588.
 FoFCou: FMM=F IPFlag=           0 FMFlag=           0 FMFlg1=           0
         NFxFlg=           0 DoJE=F BraDBF=F KetDBF=F FulRan=T
         wScrn=  0.000000 ICntrl=       600 IOpCl=  0 I1Cent=           0 NGrid=           0
         NMat0=    1 NMatS0=   1081 NMatT0=    0 NMatD0=    1 NMtDS0=    0 NMtDT0=    0
 Symmetry not used in FoFCou.
 Two-electron integral symmetry not used.
 Closed shell SCF:
 Using DIIS extrapolation, IDIIS=  1040.
 NGot=  1610612736 LenX=  1610022043 LenY=  1610019102
 Requested convergence on RMS density matrix=1.00D-08 within 128 cycles.
 Requested convergence on MAX density matrix=1.00D-06.
 Requested convergence on             energy=1.00D-06.
 No special actions if energy rises.

 Cycle   1  Pass 1  IDiag  1:
 E= -1.00325112513280    
 DIIS: error= 9.81D-03 at cycle   1 NSaved=   1.
 NSaved= 1 IEnMin= 1 EnMin= -1.00325112513280     IErMin= 1 ErrMin= 9.81D-03
 ErrMax= 9.81D-03  0.00D+00 EMaxC= 1.00D-01 BMatC= 1.01D-03 BMatP= 1.01D-03
 IDIUse=3 WtCom= 9.02D-01 WtEn= 9.81D-02
 Coeff-Com:  0.100D+01
 Coeff-En:   0.100D+01
 Coeff:      0.100D+01
 Gap=     0.477 Goal=   None    Shift=    0.000
 GapD=    0.477 DampG=2.000 DampE=1.000 DampFc=2.0000 IDamp=-1.
 RMSDP=4.67D-04 MaxDP=5.34D-03              OVMax= 2.07D-02

 Cycle   2  Pass 1  IDiag  1:
 E= -1.00458877810640     Delta-E=       -0.001337652974 Rises=F Damp=F
 DIIS: error= 1.50D-03 at cycle   2 NSaved=   2.
 NSaved= 2 IEnMin= 2 EnMin= -1.00458877810640     IErMin= 2 ErrMin= 1.50D-03
 ErrMax= 1.50D-03  0.00D+00 EMaxC= 1.00D-01 BMatC= 2.86D-05 BMatP= 1.01D-03
 IDIUse=3 WtCom= 9.85D-01 WtEn= 1.50D-02
 Coeff-Com: -0.177D+00 0.118D+01
 Coeff-En:   0.000D+00 0.100D+01
 Coeff:     -0.175D+00 0.117D+01
 Gap=     0.454 Goal=   None    Shift=    0.000
 RMSDP=1.49D-04 MaxDP=2.28D-03 DE=-1.34D-03 OVMax= 5.69D-03

 Cycle   3  Pass 1  IDiag  1:
 E= -1.00465017983750     Delta-E=       -0.000061401731 Rises=F Damp=F
 DIIS: error= 2.11D-04 at cycle   3 NSaved=   3.
 NSaved= 3 IEnMin= 3 EnMin= -1.00465017983750     IErMin= 3 ErrMin= 2.11D-04
 ErrMax= 2.11D-04  0.00D+00 EMaxC= 1.00D-01 BMatC= 3.67D-07 BMatP= 2.86D-05
 IDIUse=3 WtCom= 9.98D-01 WtEn= 2.11D-03
 Coeff-Com:  0.476D-01-0.353D+00 0.131D+01
 Coeff-En:   0.000D+00 0.000D+00 0.100D+01
 Coeff:      0.475D-01-0.352D+00 0.130D+01
 Gap=     0.454 Goal=   None    Shift=    0.000
 RMSDP=2.70D-05 MaxDP=4.05D-04 DE=-6.14D-05 OVMax= 9.50D-04

 Cycle   4  Pass 1  IDiag  1:
 E= -1.00465132668484     Delta-E=       -0.000001146847 Rises=F Damp=F
 DIIS: error= 1.03D-05 at cycle   4 NSaved=   4.
 NSaved= 4 IEnMin= 4 EnMin= -1.00465132668484     IErMin= 4 ErrMin= 1.03D-05
 ErrMax= 1.03D-05  0.00D+00 EMaxC= 1.00D-01 BMatC= 1.47D-09 BMatP= 3.67D-07
 IDIUse=1 WtCom= 1.00D+00 WtEn= 0.00D+00
 Coeff-Com: -0.128D-01 0.961D-01-0.381D+00 0.130D+01
 Coeff:     -0.128D-01 0.961D-01-0.381D+00 0.130D+01
 Gap=     0.454 Goal=   None    Shift=    0.000
 RMSDP=2.49D-06 MaxDP=2.87D-05 DE=-1.15D-06 OVMax= 7.14D-05

 Cycle   5  Pass 1  IDiag  1:
 E= -1.00465133202184     Delta-E=       -0.000000005337 Rises=F Damp=F
 DIIS: error= 2.46D-07 at cycle   5 NSaved=   5.
 NSaved= 5 IEnMin= 5 EnMin= -1.00465133202184     IErMin= 5 ErrMin= 2.46D-07
 ErrMax= 2.46D-07  0.00D+00 EMaxC= 1.00D-01 BMatC= 8.54D-13 BMatP= 1.47D-09
 IDIUse=1 WtCom= 1.00D+00 WtEn= 0.00D+00
 Coeff-Com:  0.106D-02-0.799D-02 0.321D-01-0.118D+00 0.109D+01
 Coeff:      0.106D-02-0.799D-02 0.321D-01-0.118D+00 0.109D+01
 Gap=     0.454 Goal=   None    Shift=    0.000
 RMSDP=4.49D-08 MaxDP=6.30D-07 DE=-5.34D-09 OVMax= 1.17D-06

 Cycle   6  Pass 1  IDiag  1:
 E= -1.00465133202399     Delta-E=       -0.000000000002 Rises=F Damp=F
 DIIS: error= 3.27D-08 at cycle   6 NSaved=   6.
 NSaved= 6 IEnMin= 6 EnMin= -1.00465133202399     IErMin= 6 ErrMin= 3.27D-08
 ErrMax= 3.27D-08  0.00D+00 EMaxC= 1.00D-01 BMatC= 9.05D-15 BMatP= 8.54D-13
 IDIUse=1 WtCom= 1.00D+00 WtEn= 0.00D+00
 Coeff-Com:  0.196D-05-0.551D-05-0.329D-04 0.107D-02-0.128D+00 0.113D+01
 Coeff:      0.196D-05-0.551D-05-0.329D-04 0.107D-02-0.128D+00 0.113D+01
 Gap=     0.454 Goal=   None    Shift=    0.000
 RMSDP=3.49D-09 MaxDP=4.69D-08 DE=-2.15D-12 OVMax= 1.30D-07

 SCF Done:  E(RHF) =  -1.00465133202     A.U. after    6 cycles
            NFock=  6  Conv=0.35D-08     -V/T= 2.3788
 KE= 7.286416811800D-01 PE=-2.562113082407D+00 EE= 4.760352619234D-01
 Leave Link  502 at Tue Dec 20 08:06:09 2016, MaxMem=  1610612736 cpu:               1.4 elap:               0.2
 (Enter /home1/gaussian/gdv/I03P/gdv/l801.exe)
 Windowed orbitals will be sorted by symmetry type.
 Range of M.O.s used for correlation:     1    46
 NBasis=    46 NAE=     1 NBE=     1 NFC=     0 NFV=     0
 NROrb=     46 NOA=     1 NOB=     1 NVA=    45 NVB=    45
 Leave Link  801 at Tue Dec 20 08:06:09 2016, MaxMem=  1610612736 cpu:               0.2 elap:               0.0
 (Enter /home1/gaussian/gdv/I03P/gdv/l804.exe)
 Closed-shell transformation, MDV=  1610612736 ITran=3 ISComp=1.
 Unit  1 TFree=         71264 TCopy=        197523.
 Semi-Direct transformation.
 ModeAB=           2 MOrb=             1 LenV=    1610409565
 LASXX=         2025 LTotXX=        2025 LenRXX=        2025
 LTotAB=        3106 MaxLAS=       58650 LenRXY=       58650
 NonZer=       62238 LenScr=      785920 LnRSAI=           0
 LnScr1=           0 LExtra=           0 Total=       846595
 MaxDsk=          -1 SrtSym=           F ITran=            3
 DoSDTr:  NPSUse=  8
 JobTyp=0 Pass  1:  I=   1 to   1.
 (rs|ai) integrals will be sorted in core.
 Complete sort for first half transformation.
 First half transformation complete.
 Complete sort for second half transformation.
 Second half transformation complete.
 Spin components of T(2) and E(2):
     alpha-alpha T2 =       0.0000000000D+00 E2=      0.0000000000D+00
     alpha-beta  T2 =       0.2785634283D-01 E2=     -0.4059185837D-01
     beta-beta   T2 =       0.0000000000D+00 E2=      0.0000000000D+00
 ANorm=    0.1013832502D+01
 E2 =    -0.4059185837D-01 EUMP2 =    -0.10452431903943D+01
 Leave Link  804 at Tue Dec 20 08:06:09 2016, MaxMem=  1610612736 cpu:               0.8 elap:               0.1
 (Enter /home2/plestran/devel/guga/l912.exe)
 Top of link  912.    Tue Dec 20 08:06:09 2016        0.00 cpu,        0.00 elapsed
 *************************************************************************************************************
 GUGA-based CI
 *************************************************************************************************************
 Number of Roots =  46
 Level of Excitation        =    1
 Spin Multiplicity =  1
 Total number of electrons  =    2
 Total Number of CSFs =       46
 -------------------------------------------------------------------------------------------------------------
 Top of DavDag.       Tue Dec 20 08:06:11 2016       14.86 cpu,        1.86 elapsed
 Davidson Disk Diagonalization is being used:
 MVecIn=     46 MSekIn=   46 NVConv=   46 NVConT=    0 MConv=   46 WhenSc=  2 IFact=    3 FinIt=T
 NRoot=    46 Conv= 1.00D-08 ConvT= 1.00D-08 MaxItI=         128 Dim=          46 Max sub=   460
 Iteration     1 internal iteration     1 dimension is    46
 Eigenvalues at current iteration:
 Root      1 :    -1.357436139304016
 Root      2 :    -1.064242262297567
 Root      3 :    -1.010595913634159
 Root      4 :    -0.961115969058054
 Root      5 :    -0.959166445504496
 Root      6 :    -0.959166445504495
 Root      7 :    -0.855300280799914
 Root      8 :    -0.850485743902069
 Root      9 :    -0.850485743902067
 Root     10 :    -0.765288458135831
 Root     11 :    -0.668861356408400
 Root     12 :    -0.563414775677679
 Root     13 :    -0.472810962362502
 Root     14 :    -0.472810962362502
 Root     15 :    -0.374210324694168
 Root     16 :    -0.374210324694168
 Root     17 :    -0.277277808307904
 Root     18 :    -0.260077285485206
 Root     19 :    -0.260077285485203
 Root     20 :    -0.245316959749901
 Root     21 :    -0.245316959749900
 Root     22 :    -0.206656531962520
 Root     23 :    -0.206656531962515
 Root     24 :    -0.203216453290579
 Root     25 :     0.031978128355822
 Root     26 :     0.144713930305760
 Root     27 :     0.144713930305765
 Root     28 :     0.516728295331085
 Root     29 :     1.304392302364947
 Root     30 :     1.713168305926244
 Root     31 :     2.226594924175768
 Root     32 :     2.335369750087487
 Root     33 :     2.335369750087497
 Root     34 :     2.471922500911893
 Root     35 :     2.471922500911905
 Root     36 :     2.553714632368212
 Root     37 :     2.553714632368216
 Root     38 :     2.712070034247207
 Root     39 :     2.712070034247252
 Root     40 :     2.802738942620176
 Root     41 :     2.802738942620185
 Root     42 :     2.834023952744651
 Root     43 :     2.834023952744675
 Root     44 :     3.026727912950306
 Root     45 :     3.077623590203124
 Root     46 :     3.813242317598716
 DEMax= 0.00D+00
 State    1 2nd order lowering   -0.629227606407E-30 norm 1.84D-15
 State    2 2nd order lowering   -0.404353621355E-27 norm 3.39D-13
 State    3 2nd order lowering   -0.452908859994E-28 norm 1.69D-13
 State    4 2nd order lowering   -0.661217537642E-27 norm 4.64D-12
 State    5 2nd order lowering   -0.356424469987E-27 norm 7.89D-13
 State    6 2nd order lowering   -0.682221440881E-28 norm 3.43D-13
 State    7 2nd order lowering   -0.928279943554E-28 norm 1.58D-13
 State    8 2nd order lowering   -0.112026759418E-26 norm 8.20D-13
 State    9 2nd order lowering   -0.662930288668E-27 norm 6.92D-13
 State   10 2nd order lowering   -0.820952088297E-27 norm 1.33D-12
 State   11 2nd order lowering    0.184525032450E-29 norm 3.04D-14
 State   12 2nd order lowering    0.180266753392E-27 norm 8.42D-13
 State   13 2nd order lowering   -0.538445763986E-26 norm 5.58D-12
 State   14 2nd order lowering   -0.191539661547E-26 norm 3.33D-12
 State   15 2nd order lowering    0.879894222310E-26 norm 8.30D-12
 State   16 2nd order lowering    0.420277881691E-26 norm 5.74D-12
 State   17 2nd order lowering   -0.553008688582E-27 norm 5.91D-13
 State   18 2nd order lowering   -0.646836482203E-27 norm 1.52D-12
 State   19 2nd order lowering   -0.297285574902E-26 norm 3.25D-12
 State   20 2nd order lowering   -0.208336137399E-27 norm 4.61D-13
 State   21 2nd order lowering   -0.295564373662E-26 norm 1.74D-12
 State   22 2nd order lowering   -0.597493818236E-27 norm 1.82D-12
 State   23 2nd order lowering   -0.137944943756E-25 norm 8.73D-12
 State   24 2nd order lowering    0.792592270764E-27 norm 8.97D-13
 State   25 2nd order lowering    0.170830422507E-28 norm 1.07D-13
 State   26 2nd order lowering    0.510038908856E-27 norm 5.13D-13
 State   27 2nd order lowering    0.100041462968E-26 norm 7.18D-13
 State   28 2nd order lowering    0.100751079519E-26 norm 9.83D-13
 State   29 2nd order lowering    0.550723644973E-26 norm 3.32D-12
 State   30 2nd order lowering    0.374203091976E-27 norm 8.39D-13
 State   31 2nd order lowering   -0.313231032460E-29 norm 2.78D-14
 State   32 2nd order lowering    0.107393613778E-25 norm 8.13D-12
 State   33 2nd order lowering    0.515743747441E-27 norm 1.78D-12
 State   34 2nd order lowering    0.117276179456E-26 norm 2.61D-12
 State   35 2nd order lowering    0.260610800760E-26 norm 3.88D-12
 State   36 2nd order lowering    0.144262913520E-25 norm 7.17D-12
 State   37 2nd order lowering    0.155053554390E-25 norm 7.43D-12
 State   38 2nd order lowering    0.239701760614E-27 norm 7.40D-13
 State   39 2nd order lowering    0.692218491510E-26 norm 3.87D-12
 State   40 2nd order lowering   -0.462347168193E-28 norm 8.30D-14
 State   41 2nd order lowering   -0.208632804062E-28 norm 5.50D-14
 State   42 2nd order lowering    0.375500222226E-27 norm 2.14D-13
 State   43 2nd order lowering    0.605555338345E-27 norm 3.01D-13
 State   44 2nd order lowering    0.400115463725E-26 norm 3.01D-12
 State   45 2nd order lowering    0.303952959536E-27 norm 7.85D-13
 State   46 2nd order lowering    0.757172491946E-33 norm 2.97D-17
 Convergence achieved for final wavefunctions.
 Bot of DavDag.       Tue Dec 20 08:06:19 2016       60.39 cpu,        7.57 elapsed
 -------------------------------------------------------------------------------------------------------------
 E(CI,Root=   0) =       -1.004651332024    
 E(CI,Root=   1) =      -0.7114574550176    
 E(CI,Root=   2) =      -0.6578111063542    
 E(CI,Root=   3) =      -0.6083311617781    
 E(CI,Root=   4) =      -0.6063816382245    
 E(CI,Root=   5) =      -0.6063816382245    
 E(CI,Root=   6) =      -0.5025154735199    
 E(CI,Root=   7) =      -0.4977009366221    
 E(CI,Root=   8) =      -0.4977009366221    
 E(CI,Root=   9) =      -0.4125036508558    
 E(CI,Root=  10) =      -0.3160765491284    
 E(CI,Root=  11) =      -0.2106299683977    
 E(CI,Root=  12) =      -0.1200261550825    
 E(CI,Root=  13) =      -0.1200261550825    
 E(CI,Root=  14) =      -0.2142551741417E-01
 E(CI,Root=  15) =      -0.2142551741417E-01
 E(CI,Root=  16) =       0.7550699897210E-01
 E(CI,Root=  17) =       0.9270752179479E-01
 E(CI,Root=  18) =       0.9270752179480E-01
 E(CI,Root=  19) =       0.1074678475301    
 E(CI,Root=  20) =       0.1074678475301    
 E(CI,Root=  21) =       0.1461282753175    
 E(CI,Root=  22) =       0.1461282753175    
 E(CI,Root=  23) =       0.1495683539894    
 E(CI,Root=  24) =       0.3847629356358    
 E(CI,Root=  25) =       0.4974987375858    
 E(CI,Root=  26) =       0.4974987375858    
 E(CI,Root=  27) =       0.8695131026111    
 E(CI,Root=  28) =        1.657177109645    
 E(CI,Root=  29) =        2.065953113206    
 E(CI,Root=  30) =        2.579379731456    
 E(CI,Root=  31) =        2.688154557367    
 E(CI,Root=  32) =        2.688154557367    
 E(CI,Root=  33) =        2.824707308192    
 E(CI,Root=  34) =        2.824707308192    
 E(CI,Root=  35) =        2.906499439648    
 E(CI,Root=  36) =        2.906499439648    
 E(CI,Root=  37) =        3.064854841527    
 E(CI,Root=  38) =        3.064854841527    
 E(CI,Root=  39) =        3.155523749900    
 E(CI,Root=  40) =        3.155523749900    
 E(CI,Root=  41) =        3.186808760025    
 E(CI,Root=  42) =        3.186808760025    
 E(CI,Root=  43) =        3.379512720230    
 E(CI,Root=  44) =        3.430408397483    
 E(CI,Root=  45) =        4.166027124879    
 *************************************************************************************************************
 GUGA-based TD-CI
 *************************************************************************************************************
 Step Size =      0.00242 fs       0.10000 a.u.

 External field Parameters:
                             Ex =     0.00000 a.u.
                             Ey =     0.00000 a.u.
                             Ez =    -0.00200 a.u.
                      Frequency =     1.95930 eV   Wavelength =   632.79841 nm
                          Phase =     0.00000 rad
                          t(on) =     0.00000 fs,
                         t(off) =  1000.00000 fs

 Split Operator Propagation
 Forming Transition Density
 NP =                    8
 NChunk =                  136
 CI dipole matrix                   1
                1             2             3             4             5 
      1  0.000000D+00
      2  0.000000D+00  0.000000D+00
      3  0.000000D+00  0.000000D+00  0.000000D+00
      4  0.000000D+00  0.000000D+00  0.000000D+00  0.000000D+00
      5 -0.448813D+00  0.000000D+00 -0.441787D+00  0.000000D+00  0.000000D+00
      6  0.137887D+01  0.000000D+00  0.135729D+01  0.000000D+00  0.000000D+00
      7  0.000000D+00  0.000000D+00  0.000000D+00  0.000000D+00  0.106473D+00
      8  0.000000D+00 -0.426568D+00  0.000000D+00 -0.137855D+00  0.000000D+00
      9  0.000000D+00 -0.148285D+01  0.000000D+00 -0.479219D+00  0.000000D+00
     10  0.000000D+00  0.000000D+00  0.000000D+00  0.000000D+00  0.000000D+00
     11  0.000000D+00  0.000000D+00  0.000000D+00  0.000000D+00 -0.370401D+00
     12  0.000000D+00  0.000000D+00  0.000000D+00  0.000000D+00  0.000000D+00
     13  0.000000D+00  0.000000D+00  0.000000D+00  0.000000D+00 -0.565131D+00
     14  0.000000D+00  0.000000D+00  0.000000D+00  0.000000D+00 -0.102400D+01
     15 -0.114043D+00  0.000000D+00  0.248808D+00  0.000000D+00  0.000000D+00
     16  0.389085D+00  0.000000D+00 -0.848869D+00  0.000000D+00  0.000000D+00
     17  0.000000D+00  0.000000D+00  0.000000D+00  0.000000D+00  0.152957D-01
     18  0.000000D+00  0.000000D+00  0.000000D+00  0.000000D+00  0.000000D+00
     19  0.000000D+00  0.000000D+00  0.000000D+00  0.000000D+00  0.000000D+00
     20  0.000000D+00 -0.377869D-01  0.000000D+00 -0.439691D+00  0.000000D+00
     21  0.000000D+00 -0.774662D-01  0.000000D+00 -0.901402D+00  0.000000D+00
     22  0.157113D+00  0.000000D+00 -0.344433D+00  0.000000D+00  0.000000D+00
     23 -0.266038D+00  0.000000D+00  0.583224D+00  0.000000D+00  0.000000D+00
     24  0.000000D+00  0.000000D+00  0.000000D+00  0.000000D+00  0.000000D+00
     25  0.000000D+00  0.000000D+00  0.000000D+00  0.000000D+00 -0.149709D-01
     26  0.000000D+00 -0.804575D-02  0.000000D+00 -0.273895D-02  0.000000D+00
     27  0.000000D+00  0.697526D-01  0.000000D+00  0.237453D-01  0.000000D+00
     28  0.000000D+00  0.000000D+00  0.000000D+00  0.000000D+00  0.000000D+00
     29  0.000000D+00  0.000000D+00  0.000000D+00  0.000000D+00  0.806204D-01
     30  0.000000D+00  0.000000D+00  0.000000D+00  0.000000D+00  0.000000D+00
     31  0.000000D+00  0.000000D+00  0.000000D+00  0.000000D+00 -0.260496D-01
     32 -0.785780D-03  0.000000D+00 -0.280056D-01  0.000000D+00  0.000000D+00
     33  0.255167D-02  0.000000D+00  0.909426D-01  0.000000D+00  0.000000D+00
     34  0.000000D+00  0.000000D+00  0.000000D+00  0.000000D+00  0.239936D+00
     35  0.000000D+00  0.000000D+00  0.000000D+00  0.000000D+00  0.468734D-01
     36  0.000000D+00  0.000000D+00  0.000000D+00  0.000000D+00  0.000000D+00
     37  0.000000D+00  0.000000D+00  0.000000D+00  0.000000D+00  0.000000D+00
     38  0.154154D-01  0.000000D+00  0.760801D-01  0.000000D+00  0.000000D+00
     39 -0.642479D-01  0.000000D+00 -0.317084D+00  0.000000D+00  0.000000D+00
     40  0.000000D+00 -0.104711D-01  0.000000D+00 -0.809174D-01  0.000000D+00
     41  0.000000D+00 -0.572442D-02  0.000000D+00 -0.442364D-01  0.000000D+00
     42  0.000000D+00 -0.446234D-01  0.000000D+00 -0.789523D-01  0.000000D+00
     43  0.000000D+00  0.938422D-01  0.000000D+00  0.166035D+00  0.000000D+00
     44  0.000000D+00  0.000000D+00  0.000000D+00  0.000000D+00  0.106640D-01
     45  0.000000D+00  0.000000D+00  0.000000D+00  0.000000D+00  0.000000D+00
     46  0.000000D+00  0.000000D+00  0.000000D+00  0.000000D+00  0.000000D+00
                6             7             8             9            10 
      6  0.000000D+00
      7 -0.327114D+00  0.000000D+00
      8  0.000000D+00  0.000000D+00  0.000000D+00
      9  0.000000D+00  0.000000D+00  0.000000D+00  0.000000D+00
     10  0.000000D+00  0.000000D+00 -0.251574D-01 -0.874533D-01  0.000000D+00
     11  0.113797D+01  0.000000D+00  0.000000D+00  0.000000D+00  0.000000D+00
     12  0.000000D+00  0.000000D+00 -0.360537D+00 -0.125331D+01  0.000000D+00
     13 -0.102400D+01  0.000000D+00  0.000000D+00  0.000000D+00  0.000000D+00
     14  0.565131D+00  0.000000D+00  0.000000D+00  0.000000D+00  0.000000D+00
     15  0.000000D+00  0.186159D+00  0.000000D+00  0.000000D+00  0.000000D+00
     16  0.000000D+00 -0.635126D+00  0.000000D+00  0.000000D+00  0.000000D+00
     17 -0.469924D-01  0.000000D+00  0.000000D+00  0.000000D+00  0.000000D+00
     18  0.000000D+00  0.000000D+00 -0.276555D+00 -0.104580D+01  0.000000D+00
     19  0.000000D+00  0.000000D+00 -0.104580D+01  0.276555D+00  0.000000D+00
     20  0.000000D+00  0.000000D+00  0.000000D+00  0.000000D+00 -0.882537D-01
     21  0.000000D+00  0.000000D+00  0.000000D+00  0.000000D+00 -0.180928D+00
     22  0.000000D+00  0.454839D+00  0.000000D+00  0.000000D+00  0.000000D+00
     23  0.000000D+00 -0.770173D+00  0.000000D+00  0.000000D+00  0.000000D+00
     24  0.000000D+00  0.000000D+00  0.102833D+00  0.357473D+00  0.000000D+00
     25  0.459945D-01  0.000000D+00  0.000000D+00  0.000000D+00  0.000000D+00
     26  0.000000D+00  0.000000D+00  0.000000D+00  0.000000D+00 -0.866864D-01
     27  0.000000D+00  0.000000D+00  0.000000D+00  0.000000D+00  0.751527D+00
     28  0.000000D+00  0.000000D+00 -0.686469D-01 -0.238633D+00  0.000000D+00
     29 -0.247687D+00  0.000000D+00  0.000000D+00  0.000000D+00  0.000000D+00
     30  0.000000D+00  0.000000D+00  0.857864D-01  0.298214D+00  0.000000D+00
     31  0.800313D-01  0.000000D+00  0.000000D+00  0.000000D+00  0.000000D+00
     32  0.000000D+00 -0.818753D-01  0.000000D+00  0.000000D+00  0.000000D+00
     33  0.000000D+00  0.265874D+00  0.000000D+00  0.000000D+00  0.000000D+00
     34  0.468734D-01  0.000000D+00  0.000000D+00  0.000000D+00  0.000000D+00
     35 -0.239936D+00  0.000000D+00  0.000000D+00  0.000000D+00  0.000000D+00
     36  0.000000D+00  0.000000D+00  0.990822D-01  0.235297D+00  0.000000D+00
     37  0.000000D+00  0.000000D+00  0.235297D+00 -0.990822D-01  0.000000D+00
     38  0.000000D+00 -0.295932D-01  0.000000D+00  0.000000D+00  0.000000D+00
     39  0.000000D+00  0.123337D+00  0.000000D+00  0.000000D+00  0.000000D+00
     40  0.000000D+00  0.000000D+00  0.000000D+00  0.000000D+00 -0.168617D+00
     41  0.000000D+00  0.000000D+00  0.000000D+00  0.000000D+00 -0.921806D-01
     42  0.000000D+00  0.000000D+00  0.000000D+00  0.000000D+00  0.454810D-02
     43  0.000000D+00  0.000000D+00  0.000000D+00  0.000000D+00 -0.956457D-02
     44 -0.327628D-01  0.000000D+00  0.000000D+00  0.000000D+00  0.000000D+00
     45  0.000000D+00  0.000000D+00 -0.174403D-01 -0.606267D-01  0.000000D+00
     46  0.000000D+00  0.000000D+00  0.125087D-01  0.434832D-01  0.000000D+00
               11            12            13            14            15 
     11  0.000000D+00
     12  0.000000D+00  0.000000D+00
     13  0.000000D+00  0.000000D+00  0.000000D+00
     14  0.000000D+00  0.000000D+00  0.000000D+00  0.000000D+00
     15  0.165394D-01  0.000000D+00  0.106366D+00  0.535908D-01  0.000000D+00
     16 -0.564284D-01  0.000000D+00 -0.535908D-01  0.106366D+00  0.000000D+00
     17  0.000000D+00  0.000000D+00  0.000000D+00  0.000000D+00 -0.220209D-01
     18  0.000000D+00  0.000000D+00  0.000000D+00  0.000000D+00  0.000000D+00
     19  0.000000D+00  0.000000D+00  0.000000D+00  0.000000D+00  0.000000D+00
     20  0.000000D+00 -0.217100D+00  0.000000D+00  0.000000D+00  0.000000D+00
     21  0.000000D+00 -0.445072D+00  0.000000D+00  0.000000D+00  0.000000D+00
     22 -0.225127D+00  0.000000D+00  0.698827D-01  0.155078D-01  0.000000D+00
     23  0.381205D+00  0.000000D+00 -0.155078D-01  0.698827D-01  0.000000D+00
     24  0.000000D+00  0.000000D+00  0.000000D+00  0.000000D+00  0.000000D+00
     25  0.000000D+00  0.000000D+00  0.000000D+00  0.000000D+00  0.389931D-01
     26  0.000000D+00  0.130626D-01  0.000000D+00  0.000000D+00  0.000000D+00
     27  0.000000D+00 -0.113246D+00  0.000000D+00  0.000000D+00  0.000000D+00
     28  0.000000D+00  0.000000D+00  0.000000D+00  0.000000D+00  0.000000D+00
     29  0.000000D+00  0.000000D+00  0.000000D+00  0.000000D+00 -0.105019D+00
     30  0.000000D+00  0.000000D+00  0.000000D+00  0.000000D+00  0.000000D+00
     31  0.000000D+00  0.000000D+00  0.000000D+00  0.000000D+00  0.835620D-01
     32  0.419040D-01  0.000000D+00 -0.606419D-01 -0.295253D-01  0.000000D+00
     33 -0.136075D+00  0.000000D+00  0.295253D-01 -0.606419D-01  0.000000D+00
     34  0.000000D+00  0.000000D+00  0.000000D+00  0.000000D+00  0.261514D+00
     35  0.000000D+00  0.000000D+00  0.000000D+00  0.000000D+00 -0.112690D+00
     36  0.000000D+00  0.000000D+00  0.000000D+00  0.000000D+00  0.000000D+00
     37  0.000000D+00  0.000000D+00  0.000000D+00  0.000000D+00  0.000000D+00
     38 -0.624852D-01  0.000000D+00  0.141879D+00  0.805467D-01  0.000000D+00
     39  0.260424D+00  0.000000D+00 -0.805467D-01  0.141879D+00  0.000000D+00
     40  0.000000D+00 -0.709100D-01  0.000000D+00  0.000000D+00  0.000000D+00
     41  0.000000D+00 -0.387655D-01  0.000000D+00  0.000000D+00  0.000000D+00
     42  0.000000D+00  0.974647D-01  0.000000D+00  0.000000D+00  0.000000D+00
     43  0.000000D+00 -0.204966D+00  0.000000D+00  0.000000D+00  0.000000D+00
     44  0.000000D+00  0.000000D+00  0.000000D+00  0.000000D+00 -0.619799D-01
     45  0.000000D+00  0.000000D+00  0.000000D+00  0.000000D+00  0.000000D+00
     46  0.000000D+00  0.000000D+00  0.000000D+00  0.000000D+00  0.000000D+00
               16            17            18            19            20 
     16  0.000000D+00
     17  0.751297D-01  0.000000D+00
     18  0.000000D+00  0.000000D+00  0.000000D+00
     19  0.000000D+00  0.000000D+00  0.000000D+00  0.000000D+00
     20  0.000000D+00  0.000000D+00  0.600791D-01  0.130226D+00  0.000000D+00
     21  0.000000D+00  0.000000D+00  0.130226D+00 -0.600791D-01  0.000000D+00
     22  0.000000D+00  0.236759D-01  0.000000D+00  0.000000D+00  0.000000D+00
     23  0.000000D+00 -0.400902D-01  0.000000D+00  0.000000D+00  0.000000D+00
     24  0.000000D+00  0.000000D+00  0.000000D+00  0.000000D+00  0.402003D-01
     25 -0.133034D+00  0.000000D+00  0.000000D+00  0.000000D+00  0.000000D+00
     26  0.000000D+00  0.000000D+00 -0.236792D-01  0.172499D+00  0.000000D+00
     27  0.000000D+00  0.000000D+00  0.172499D+00  0.236792D-01  0.000000D+00
     28  0.000000D+00  0.000000D+00  0.000000D+00  0.000000D+00 -0.217102D+00
     29  0.358299D+00  0.000000D+00  0.000000D+00  0.000000D+00  0.000000D+00
     30  0.000000D+00  0.000000D+00  0.000000D+00  0.000000D+00  0.232419D+00
     31 -0.285092D+00  0.000000D+00  0.000000D+00  0.000000D+00  0.000000D+00
     32  0.000000D+00 -0.146228D+00  0.000000D+00  0.000000D+00  0.000000D+00
     33  0.000000D+00  0.474846D+00  0.000000D+00  0.000000D+00  0.000000D+00
     34  0.112690D+00  0.000000D+00  0.000000D+00  0.000000D+00  0.000000D+00
     35  0.261514D+00  0.000000D+00  0.000000D+00  0.000000D+00  0.000000D+00
     36  0.000000D+00  0.000000D+00  0.000000D+00  0.000000D+00  0.180955D+00
     37  0.000000D+00  0.000000D+00  0.000000D+00  0.000000D+00  0.280903D+00
     38  0.000000D+00 -0.179796D-01  0.000000D+00  0.000000D+00  0.000000D+00
     39  0.000000D+00  0.749349D-01  0.000000D+00  0.000000D+00  0.000000D+00
     40  0.000000D+00  0.000000D+00 -0.477664D-01  0.247898D-01  0.000000D+00
     41  0.000000D+00  0.000000D+00 -0.247898D-01 -0.477664D-01  0.000000D+00
     42  0.000000D+00  0.000000D+00  0.101233D+00  0.225301D+00  0.000000D+00
     43  0.000000D+00  0.000000D+00 -0.225301D+00  0.101233D+00  0.000000D+00
     44  0.211460D+00  0.000000D+00  0.000000D+00  0.000000D+00  0.000000D+00
     45  0.000000D+00  0.000000D+00  0.000000D+00  0.000000D+00 -0.538816D-01
     46  0.000000D+00  0.000000D+00  0.000000D+00  0.000000D+00  0.907988D-01
               21            22            23            24            25 
     21  0.000000D+00
     22  0.000000D+00  0.000000D+00
     23  0.000000D+00  0.000000D+00  0.000000D+00
     24  0.824140D-01  0.000000D+00  0.000000D+00  0.000000D+00
     25  0.000000D+00  0.252187D+00 -0.427025D+00  0.000000D+00  0.000000D+00
     26  0.000000D+00  0.000000D+00  0.000000D+00  0.619286D-01  0.000000D+00
     27  0.000000D+00  0.000000D+00  0.000000D+00 -0.536890D+00  0.000000D+00
     28 -0.445076D+00  0.000000D+00  0.000000D+00  0.000000D+00  0.000000D+00
     29  0.000000D+00  0.300538D+00 -0.508897D+00  0.000000D+00  0.000000D+00
     30  0.476479D+00  0.000000D+00  0.000000D+00  0.000000D+00  0.000000D+00
     31  0.000000D+00 -0.450063D-01  0.762087D-01  0.000000D+00  0.000000D+00
     32  0.000000D+00  0.000000D+00  0.000000D+00  0.000000D+00  0.331723D-01
     33  0.000000D+00  0.000000D+00  0.000000D+00  0.000000D+00 -0.107720D+00
     34  0.000000D+00 -0.342107D+00 -0.262892D+00  0.000000D+00  0.000000D+00
     35  0.000000D+00  0.262892D+00 -0.342107D+00  0.000000D+00  0.000000D+00
     36  0.280903D+00  0.000000D+00  0.000000D+00  0.000000D+00  0.000000D+00
     37 -0.180955D+00  0.000000D+00  0.000000D+00  0.000000D+00  0.000000D+00
     38  0.000000D+00  0.000000D+00  0.000000D+00  0.000000D+00 -0.236210D-01
     39  0.000000D+00  0.000000D+00  0.000000D+00  0.000000D+00  0.984469D-01
     40  0.000000D+00  0.000000D+00  0.000000D+00 -0.344016D-01  0.000000D+00
     41  0.000000D+00  0.000000D+00  0.000000D+00 -0.188069D-01  0.000000D+00
     42  0.000000D+00  0.000000D+00  0.000000D+00 -0.115583D+00  0.000000D+00
     43  0.000000D+00  0.000000D+00  0.000000D+00  0.243070D+00  0.000000D+00
     44  0.000000D+00 -0.910959D-01  0.154252D+00  0.000000D+00  0.000000D+00
     45 -0.110462D+00  0.000000D+00  0.000000D+00  0.000000D+00  0.000000D+00
     46  0.186145D+00  0.000000D+00  0.000000D+00  0.000000D+00  0.000000D+00
               26            27            28            29            30 
     26  0.000000D+00
     27  0.000000D+00  0.000000D+00
     28  0.712625D-02 -0.617810D-01  0.000000D+00
     29  0.000000D+00  0.000000D+00  0.000000D+00  0.000000D+00
     30 -0.383039D-01  0.332075D+00  0.000000D+00  0.000000D+00  0.000000D+00
     31  0.000000D+00  0.000000D+00  0.000000D+00  0.000000D+00  0.000000D+00
     32  0.000000D+00  0.000000D+00  0.000000D+00 -0.421590D-02  0.000000D+00
     33  0.000000D+00  0.000000D+00  0.000000D+00  0.136903D-01  0.000000D+00
     34  0.000000D+00  0.000000D+00  0.000000D+00  0.000000D+00  0.000000D+00
     35  0.000000D+00  0.000000D+00  0.000000D+00  0.000000D+00  0.000000D+00
     36  0.124265D-02  0.343841D+00  0.000000D+00  0.000000D+00  0.000000D+00
     37  0.343841D+00 -0.124265D-02  0.000000D+00  0.000000D+00  0.000000D+00
     38  0.000000D+00  0.000000D+00  0.000000D+00 -0.975604D-01  0.000000D+00
     39  0.000000D+00  0.000000D+00  0.000000D+00  0.406609D+00  0.000000D+00
     40  0.000000D+00  0.000000D+00  0.439698D+00  0.000000D+00  0.118638D+00
     41  0.000000D+00  0.000000D+00  0.240377D+00  0.000000D+00  0.648576D-01
     42  0.000000D+00  0.000000D+00 -0.859778D-01  0.000000D+00  0.143870D+00
     43  0.000000D+00  0.000000D+00  0.180810D+00  0.000000D+00 -0.302556D+00
     44  0.000000D+00  0.000000D+00  0.000000D+00  0.000000D+00  0.000000D+00
     45 -0.230728D-01  0.200029D+00  0.000000D+00  0.000000D+00  0.000000D+00
     46  0.256320D-01 -0.222217D+00  0.000000D+00  0.000000D+00  0.000000D+00
               31            32            33            34            35 
     31  0.000000D+00
     32 -0.101841D-01  0.000000D+00
     33  0.330708D-01  0.000000D+00  0.000000D+00
     34  0.000000D+00 -0.795409D-02 -0.355668D-02  0.000000D+00
     35  0.000000D+00  0.355668D-02 -0.795409D-02  0.000000D+00  0.000000D+00
     36  0.000000D+00  0.000000D+00  0.000000D+00  0.000000D+00  0.000000D+00
     37  0.000000D+00  0.000000D+00  0.000000D+00  0.000000D+00  0.000000D+00
     38 -0.289159D-01  0.000000D+00  0.000000D+00 -0.169242D+00  0.631695D-01
     39  0.120515D+00  0.000000D+00  0.000000D+00 -0.631695D-01 -0.169242D+00
     40  0.000000D+00  0.000000D+00  0.000000D+00  0.000000D+00  0.000000D+00
     41  0.000000D+00  0.000000D+00  0.000000D+00  0.000000D+00  0.000000D+00
     42  0.000000D+00  0.000000D+00  0.000000D+00  0.000000D+00  0.000000D+00
     43  0.000000D+00  0.000000D+00  0.000000D+00  0.000000D+00  0.000000D+00
     44  0.000000D+00  0.443031D-01 -0.143866D+00  0.000000D+00  0.000000D+00
     45  0.000000D+00  0.000000D+00  0.000000D+00  0.000000D+00  0.000000D+00
     46  0.000000D+00  0.000000D+00  0.000000D+00  0.000000D+00  0.000000D+00
               36            37            38            39            40 
     36  0.000000D+00
     37  0.000000D+00  0.000000D+00
     38  0.000000D+00  0.000000D+00  0.000000D+00
     39  0.000000D+00  0.000000D+00  0.000000D+00  0.000000D+00
     40  0.534786D-01 -0.380779D-01  0.000000D+00  0.000000D+00  0.000000D+00
     41  0.380779D-01  0.534786D-01  0.000000D+00  0.000000D+00  0.000000D+00
     42 -0.844235D-01 -0.133965D+00  0.000000D+00  0.000000D+00  0.000000D+00
     43  0.133965D+00 -0.844235D-01  0.000000D+00  0.000000D+00  0.000000D+00
     44  0.000000D+00  0.000000D+00 -0.113765D-01  0.474145D-01  0.000000D+00
     45  0.000000D+00  0.000000D+00  0.000000D+00  0.000000D+00 -0.664559D-01
     46  0.000000D+00  0.000000D+00  0.000000D+00  0.000000D+00 -0.169401D-01
               41            42            43            44            45 
     41  0.000000D+00
     42  0.000000D+00  0.000000D+00
     43  0.000000D+00  0.000000D+00  0.000000D+00
     44  0.000000D+00  0.000000D+00  0.000000D+00  0.000000D+00
     45 -0.363305D-01 -0.610333D-01  0.128352D+00  0.000000D+00  0.000000D+00
     46 -0.926094D-02 -0.778768D-01  0.163773D+00  0.000000D+00  0.000000D+00
               46 
     46  0.000000D+00
 CI dipole matrix                   2
                1             2             3             4             5 
      1  0.000000D+00
      2  0.000000D+00  0.000000D+00
      3  0.000000D+00  0.000000D+00  0.000000D+00
      4  0.000000D+00  0.000000D+00  0.000000D+00  0.000000D+00
      5 -0.137887D+01  0.000000D+00 -0.135729D+01  0.000000D+00  0.000000D+00
      6 -0.448813D+00  0.000000D+00 -0.441787D+00  0.000000D+00  0.000000D+00
      7  0.000000D+00  0.000000D+00  0.000000D+00  0.000000D+00  0.327114D+00
      8  0.000000D+00 -0.148285D+01  0.000000D+00 -0.479219D+00  0.000000D+00
      9  0.000000D+00  0.426568D+00  0.000000D+00  0.137855D+00  0.000000D+00
     10  0.000000D+00  0.000000D+00  0.000000D+00  0.000000D+00  0.000000D+00
     11  0.000000D+00  0.000000D+00  0.000000D+00  0.000000D+00 -0.113797D+01
     12  0.000000D+00  0.000000D+00  0.000000D+00  0.000000D+00  0.000000D+00
     13  0.000000D+00  0.000000D+00  0.000000D+00  0.000000D+00 -0.102400D+01
     14  0.000000D+00  0.000000D+00  0.000000D+00  0.000000D+00  0.565131D+00
     15  0.389085D+00  0.000000D+00 -0.848869D+00  0.000000D+00  0.000000D+00
     16  0.114043D+00  0.000000D+00 -0.248808D+00  0.000000D+00  0.000000D+00
     17  0.000000D+00  0.000000D+00  0.000000D+00  0.000000D+00  0.469924D-01
     18  0.000000D+00  0.000000D+00  0.000000D+00  0.000000D+00  0.000000D+00
     19  0.000000D+00  0.000000D+00  0.000000D+00  0.000000D+00  0.000000D+00
     20  0.000000D+00 -0.774662D-01  0.000000D+00 -0.901402D+00  0.000000D+00
     21  0.000000D+00  0.377869D-01  0.000000D+00  0.439691D+00  0.000000D+00
     22 -0.266038D+00  0.000000D+00  0.583224D+00  0.000000D+00  0.000000D+00
     23 -0.157113D+00  0.000000D+00  0.344433D+00  0.000000D+00  0.000000D+00
     24  0.000000D+00  0.000000D+00  0.000000D+00  0.000000D+00  0.000000D+00
     25  0.000000D+00  0.000000D+00  0.000000D+00  0.000000D+00 -0.459945D-01
     26  0.000000D+00  0.697526D-01  0.000000D+00  0.237453D-01  0.000000D+00
     27  0.000000D+00  0.804575D-02  0.000000D+00  0.273895D-02  0.000000D+00
     28  0.000000D+00  0.000000D+00  0.000000D+00  0.000000D+00  0.000000D+00
     29  0.000000D+00  0.000000D+00  0.000000D+00  0.000000D+00  0.247687D+00
     30  0.000000D+00  0.000000D+00  0.000000D+00  0.000000D+00  0.000000D+00
     31  0.000000D+00  0.000000D+00  0.000000D+00  0.000000D+00 -0.800313D-01
     32  0.255167D-02  0.000000D+00  0.909426D-01  0.000000D+00  0.000000D+00
     33  0.785780D-03  0.000000D+00  0.280056D-01  0.000000D+00  0.000000D+00
     34  0.000000D+00  0.000000D+00  0.000000D+00  0.000000D+00  0.468734D-01
     35  0.000000D+00  0.000000D+00  0.000000D+00  0.000000D+00 -0.239936D+00
     36  0.000000D+00  0.000000D+00  0.000000D+00  0.000000D+00  0.000000D+00
     37  0.000000D+00  0.000000D+00  0.000000D+00  0.000000D+00  0.000000D+00
     38 -0.642479D-01  0.000000D+00 -0.317084D+00  0.000000D+00  0.000000D+00
     39 -0.154154D-01  0.000000D+00 -0.760801D-01  0.000000D+00  0.000000D+00
     40  0.000000D+00  0.572442D-02  0.000000D+00  0.442364D-01  0.000000D+00
     41  0.000000D+00 -0.104711D-01  0.000000D+00 -0.809174D-01  0.000000D+00
     42  0.000000D+00 -0.938422D-01  0.000000D+00 -0.166035D+00  0.000000D+00
     43  0.000000D+00 -0.446234D-01  0.000000D+00 -0.789523D-01  0.000000D+00
     44  0.000000D+00  0.000000D+00  0.000000D+00  0.000000D+00  0.327628D-01
     45  0.000000D+00  0.000000D+00  0.000000D+00  0.000000D+00  0.000000D+00
     46  0.000000D+00  0.000000D+00  0.000000D+00  0.000000D+00  0.000000D+00
                6             7             8             9            10 
      6  0.000000D+00
      7  0.106473D+00  0.000000D+00
      8  0.000000D+00  0.000000D+00  0.000000D+00
      9  0.000000D+00  0.000000D+00  0.000000D+00  0.000000D+00
     10  0.000000D+00  0.000000D+00 -0.874533D-01  0.251574D-01  0.000000D+00
     11 -0.370401D+00  0.000000D+00  0.000000D+00  0.000000D+00  0.000000D+00
     12  0.000000D+00  0.000000D+00 -0.125331D+01  0.360537D+00  0.000000D+00
     13  0.565131D+00  0.000000D+00  0.000000D+00  0.000000D+00  0.000000D+00
     14  0.102400D+01  0.000000D+00  0.000000D+00  0.000000D+00  0.000000D+00
     15  0.000000D+00 -0.635126D+00  0.000000D+00  0.000000D+00  0.000000D+00
     16  0.000000D+00 -0.186159D+00  0.000000D+00  0.000000D+00  0.000000D+00
     17  0.152957D-01  0.000000D+00  0.000000D+00  0.000000D+00  0.000000D+00
     18  0.000000D+00  0.000000D+00  0.104580D+01 -0.276555D+00  0.000000D+00
     19  0.000000D+00  0.000000D+00 -0.276555D+00 -0.104580D+01  0.000000D+00
     20  0.000000D+00  0.000000D+00  0.000000D+00  0.000000D+00 -0.180928D+00
     21  0.000000D+00  0.000000D+00  0.000000D+00  0.000000D+00  0.882537D-01
     22  0.000000D+00 -0.770173D+00  0.000000D+00  0.000000D+00  0.000000D+00
     23  0.000000D+00 -0.454839D+00  0.000000D+00  0.000000D+00  0.000000D+00
     24  0.000000D+00  0.000000D+00  0.357473D+00 -0.102833D+00  0.000000D+00
     25 -0.149709D-01  0.000000D+00  0.000000D+00  0.000000D+00  0.000000D+00
     26  0.000000D+00  0.000000D+00  0.000000D+00  0.000000D+00  0.751527D+00
     27  0.000000D+00  0.000000D+00  0.000000D+00  0.000000D+00  0.866864D-01
     28  0.000000D+00  0.000000D+00 -0.238633D+00  0.686469D-01  0.000000D+00
     29  0.806204D-01  0.000000D+00  0.000000D+00  0.000000D+00  0.000000D+00
     30  0.000000D+00  0.000000D+00  0.298214D+00 -0.857864D-01  0.000000D+00
     31 -0.260496D-01  0.000000D+00  0.000000D+00  0.000000D+00  0.000000D+00
     32  0.000000D+00  0.265874D+00  0.000000D+00  0.000000D+00  0.000000D+00
     33  0.000000D+00  0.818753D-01  0.000000D+00  0.000000D+00  0.000000D+00
     34 -0.239936D+00  0.000000D+00  0.000000D+00  0.000000D+00  0.000000D+00
     35 -0.468734D-01  0.000000D+00  0.000000D+00  0.000000D+00  0.000000D+00
     36  0.000000D+00  0.000000D+00 -0.235297D+00  0.990822D-01  0.000000D+00
     37  0.000000D+00  0.000000D+00  0.990822D-01  0.235297D+00  0.000000D+00
     38  0.000000D+00  0.123337D+00  0.000000D+00  0.000000D+00  0.000000D+00
     39  0.000000D+00  0.295932D-01  0.000000D+00  0.000000D+00  0.000000D+00
     40  0.000000D+00  0.000000D+00  0.000000D+00  0.000000D+00  0.921806D-01
     41  0.000000D+00  0.000000D+00  0.000000D+00  0.000000D+00 -0.168617D+00
     42  0.000000D+00  0.000000D+00  0.000000D+00  0.000000D+00  0.956457D-02
     43  0.000000D+00  0.000000D+00  0.000000D+00  0.000000D+00  0.454810D-02
     44  0.106640D-01  0.000000D+00  0.000000D+00  0.000000D+00  0.000000D+00
     45  0.000000D+00  0.000000D+00 -0.606267D-01  0.174403D-01  0.000000D+00
     46  0.000000D+00  0.000000D+00  0.434832D-01 -0.125087D-01  0.000000D+00
               11            12            13            14            15 
     11  0.000000D+00
     12  0.000000D+00  0.000000D+00
     13  0.000000D+00  0.000000D+00  0.000000D+00
     14  0.000000D+00  0.000000D+00  0.000000D+00  0.000000D+00
     15 -0.564284D-01  0.000000D+00  0.535908D-01 -0.106366D+00  0.000000D+00
     16 -0.165394D-01  0.000000D+00  0.106366D+00  0.535908D-01  0.000000D+00
     17  0.000000D+00  0.000000D+00  0.000000D+00  0.000000D+00  0.751297D-01
     18  0.000000D+00  0.000000D+00  0.000000D+00  0.000000D+00  0.000000D+00
     19  0.000000D+00  0.000000D+00  0.000000D+00  0.000000D+00  0.000000D+00
     20  0.000000D+00 -0.445072D+00  0.000000D+00  0.000000D+00  0.000000D+00
     21  0.000000D+00  0.217100D+00  0.000000D+00  0.000000D+00  0.000000D+00
     22  0.381205D+00  0.000000D+00  0.155078D-01 -0.698827D-01  0.000000D+00
     23  0.225127D+00  0.000000D+00  0.698827D-01  0.155078D-01  0.000000D+00
     24  0.000000D+00  0.000000D+00  0.000000D+00  0.000000D+00  0.000000D+00
     25  0.000000D+00  0.000000D+00  0.000000D+00  0.000000D+00 -0.133034D+00
     26  0.000000D+00 -0.113246D+00  0.000000D+00  0.000000D+00  0.000000D+00
     27  0.000000D+00 -0.130626D-01  0.000000D+00  0.000000D+00  0.000000D+00
     28  0.000000D+00  0.000000D+00  0.000000D+00  0.000000D+00  0.000000D+00
     29  0.000000D+00  0.000000D+00  0.000000D+00  0.000000D+00  0.358299D+00
     30  0.000000D+00  0.000000D+00  0.000000D+00  0.000000D+00  0.000000D+00
     31  0.000000D+00  0.000000D+00  0.000000D+00  0.000000D+00 -0.285092D+00
     32 -0.136075D+00  0.000000D+00 -0.295253D-01  0.606419D-01  0.000000D+00
     33 -0.419040D-01  0.000000D+00 -0.606419D-01 -0.295253D-01  0.000000D+00
     34  0.000000D+00  0.000000D+00  0.000000D+00  0.000000D+00 -0.112690D+00
     35  0.000000D+00  0.000000D+00  0.000000D+00  0.000000D+00 -0.261514D+00
     36  0.000000D+00  0.000000D+00  0.000000D+00  0.000000D+00  0.000000D+00
     37  0.000000D+00  0.000000D+00  0.000000D+00  0.000000D+00  0.000000D+00
     38  0.260424D+00  0.000000D+00  0.805467D-01 -0.141879D+00  0.000000D+00
     39  0.624852D-01  0.000000D+00  0.141879D+00  0.805467D-01  0.000000D+00
     40  0.000000D+00  0.387655D-01  0.000000D+00  0.000000D+00  0.000000D+00
     41  0.000000D+00 -0.709100D-01  0.000000D+00  0.000000D+00  0.000000D+00
     42  0.000000D+00  0.204966D+00  0.000000D+00  0.000000D+00  0.000000D+00
     43  0.000000D+00  0.974647D-01  0.000000D+00  0.000000D+00  0.000000D+00
     44  0.000000D+00  0.000000D+00  0.000000D+00  0.000000D+00  0.211460D+00
     45  0.000000D+00  0.000000D+00  0.000000D+00  0.000000D+00  0.000000D+00
     46  0.000000D+00  0.000000D+00  0.000000D+00  0.000000D+00  0.000000D+00
               16            17            18            19            20 
     16  0.000000D+00
     17  0.220209D-01  0.000000D+00
     18  0.000000D+00  0.000000D+00  0.000000D+00
     19  0.000000D+00  0.000000D+00  0.000000D+00  0.000000D+00
     20  0.000000D+00  0.000000D+00 -0.130226D+00  0.600791D-01  0.000000D+00
     21  0.000000D+00  0.000000D+00  0.600791D-01  0.130226D+00  0.000000D+00
     22  0.000000D+00 -0.400902D-01  0.000000D+00  0.000000D+00  0.000000D+00
     23  0.000000D+00 -0.236759D-01  0.000000D+00  0.000000D+00  0.000000D+00
     24  0.000000D+00  0.000000D+00  0.000000D+00  0.000000D+00  0.824140D-01
     25 -0.389931D-01  0.000000D+00  0.000000D+00  0.000000D+00  0.000000D+00
     26  0.000000D+00  0.000000D+00 -0.172499D+00 -0.236792D-01  0.000000D+00
     27  0.000000D+00  0.000000D+00 -0.236792D-01  0.172499D+00  0.000000D+00
     28  0.000000D+00  0.000000D+00  0.000000D+00  0.000000D+00 -0.445076D+00
     29  0.105019D+00  0.000000D+00  0.000000D+00  0.000000D+00  0.000000D+00
     30  0.000000D+00  0.000000D+00  0.000000D+00  0.000000D+00  0.476479D+00
     31 -0.835620D-01  0.000000D+00  0.000000D+00  0.000000D+00  0.000000D+00
     32  0.000000D+00  0.474846D+00  0.000000D+00  0.000000D+00  0.000000D+00
     33  0.000000D+00  0.146228D+00  0.000000D+00  0.000000D+00  0.000000D+00
     34  0.261514D+00  0.000000D+00  0.000000D+00  0.000000D+00  0.000000D+00
     35 -0.112690D+00  0.000000D+00  0.000000D+00  0.000000D+00  0.000000D+00
     36  0.000000D+00  0.000000D+00  0.000000D+00  0.000000D+00 -0.280903D+00
     37  0.000000D+00  0.000000D+00  0.000000D+00  0.000000D+00  0.180955D+00
     38  0.000000D+00  0.749349D-01  0.000000D+00  0.000000D+00  0.000000D+00
     39  0.000000D+00  0.179796D-01  0.000000D+00  0.000000D+00  0.000000D+00
     40  0.000000D+00  0.000000D+00 -0.247898D-01 -0.477664D-01  0.000000D+00
     41  0.000000D+00  0.000000D+00  0.477664D-01 -0.247898D-01  0.000000D+00
     42  0.000000D+00  0.000000D+00 -0.225301D+00  0.101233D+00  0.000000D+00
     43  0.000000D+00  0.000000D+00 -0.101233D+00 -0.225301D+00  0.000000D+00
     44  0.619799D-01  0.000000D+00  0.000000D+00  0.000000D+00  0.000000D+00
     45  0.000000D+00  0.000000D+00  0.000000D+00  0.000000D+00 -0.110462D+00
     46  0.000000D+00  0.000000D+00  0.000000D+00  0.000000D+00  0.186145D+00
               21            22            23            24            25 
     21  0.000000D+00
     22  0.000000D+00  0.000000D+00
     23  0.000000D+00  0.000000D+00  0.000000D+00
     24 -0.402003D-01  0.000000D+00  0.000000D+00  0.000000D+00
     25  0.000000D+00 -0.427025D+00 -0.252187D+00  0.000000D+00  0.000000D+00
     26  0.000000D+00  0.000000D+00  0.000000D+00 -0.536890D+00  0.000000D+00
     27  0.000000D+00  0.000000D+00  0.000000D+00 -0.619286D-01  0.000000D+00
     28  0.217102D+00  0.000000D+00  0.000000D+00  0.000000D+00  0.000000D+00
     29  0.000000D+00 -0.508897D+00 -0.300538D+00  0.000000D+00  0.000000D+00
     30 -0.232419D+00  0.000000D+00  0.000000D+00  0.000000D+00  0.000000D+00
     31  0.000000D+00  0.762087D-01  0.450063D-01  0.000000D+00  0.000000D+00
     32  0.000000D+00  0.000000D+00  0.000000D+00  0.000000D+00 -0.107720D+00
     33  0.000000D+00  0.000000D+00  0.000000D+00  0.000000D+00 -0.331723D-01
     34  0.000000D+00  0.262892D+00 -0.342107D+00  0.000000D+00  0.000000D+00
     35  0.000000D+00  0.342107D+00  0.262892D+00  0.000000D+00  0.000000D+00
     36  0.180955D+00  0.000000D+00  0.000000D+00  0.000000D+00  0.000000D+00
     37  0.280903D+00  0.000000D+00  0.000000D+00  0.000000D+00  0.000000D+00
     38  0.000000D+00  0.000000D+00  0.000000D+00  0.000000D+00  0.984469D-01
     39  0.000000D+00  0.000000D+00  0.000000D+00  0.000000D+00  0.236210D-01
     40  0.000000D+00  0.000000D+00  0.000000D+00  0.188069D-01  0.000000D+00
     41  0.000000D+00  0.000000D+00  0.000000D+00 -0.344016D-01  0.000000D+00
     42  0.000000D+00  0.000000D+00  0.000000D+00 -0.243070D+00  0.000000D+00
     43  0.000000D+00  0.000000D+00  0.000000D+00 -0.115583D+00  0.000000D+00
     44  0.000000D+00  0.154252D+00  0.910959D-01  0.000000D+00  0.000000D+00
     45  0.538816D-01  0.000000D+00  0.000000D+00  0.000000D+00  0.000000D+00
     46 -0.907988D-01  0.000000D+00  0.000000D+00  0.000000D+00  0.000000D+00
               26            27            28            29            30 
     26  0.000000D+00
     27  0.000000D+00  0.000000D+00
     28 -0.617810D-01 -0.712625D-02  0.000000D+00
     29  0.000000D+00  0.000000D+00  0.000000D+00  0.000000D+00
     30  0.332075D+00  0.383039D-01  0.000000D+00  0.000000D+00  0.000000D+00
     31  0.000000D+00  0.000000D+00  0.000000D+00  0.000000D+00  0.000000D+00
     32  0.000000D+00  0.000000D+00  0.000000D+00  0.136903D-01  0.000000D+00
     33  0.000000D+00  0.000000D+00  0.000000D+00  0.421590D-02  0.000000D+00
     34  0.000000D+00  0.000000D+00  0.000000D+00  0.000000D+00  0.000000D+00
     35  0.000000D+00  0.000000D+00  0.000000D+00  0.000000D+00  0.000000D+00
     36 -0.343841D+00  0.124265D-02  0.000000D+00  0.000000D+00  0.000000D+00
     37  0.124265D-02  0.343841D+00  0.000000D+00  0.000000D+00  0.000000D+00
     38  0.000000D+00  0.000000D+00  0.000000D+00  0.406609D+00  0.000000D+00
     39  0.000000D+00  0.000000D+00  0.000000D+00  0.975604D-01  0.000000D+00
     40  0.000000D+00  0.000000D+00 -0.240377D+00  0.000000D+00 -0.648576D-01
     41  0.000000D+00  0.000000D+00  0.439698D+00  0.000000D+00  0.118638D+00
     42  0.000000D+00  0.000000D+00 -0.180810D+00  0.000000D+00  0.302556D+00
     43  0.000000D+00  0.000000D+00 -0.859778D-01  0.000000D+00  0.143870D+00
     44  0.000000D+00  0.000000D+00  0.000000D+00  0.000000D+00  0.000000D+00
     45  0.200029D+00  0.230728D-01  0.000000D+00  0.000000D+00  0.000000D+00
     46 -0.222217D+00 -0.256320D-01  0.000000D+00  0.000000D+00  0.000000D+00
               31            32            33            34            35 
     31  0.000000D+00
     32  0.330708D-01  0.000000D+00
     33  0.101841D-01  0.000000D+00  0.000000D+00
     34  0.000000D+00  0.355668D-02 -0.795409D-02  0.000000D+00
     35  0.000000D+00  0.795409D-02  0.355668D-02  0.000000D+00  0.000000D+00
     36  0.000000D+00  0.000000D+00  0.000000D+00  0.000000D+00  0.000000D+00
     37  0.000000D+00  0.000000D+00  0.000000D+00  0.000000D+00  0.000000D+00
     38  0.120515D+00  0.000000D+00  0.000000D+00  0.631695D-01  0.169242D+00
     39  0.289159D-01  0.000000D+00  0.000000D+00 -0.169242D+00  0.631695D-01
     40  0.000000D+00  0.000000D+00  0.000000D+00  0.000000D+00  0.000000D+00
     41  0.000000D+00  0.000000D+00  0.000000D+00  0.000000D+00  0.000000D+00
     42  0.000000D+00  0.000000D+00  0.000000D+00  0.000000D+00  0.000000D+00
     43  0.000000D+00  0.000000D+00  0.000000D+00  0.000000D+00  0.000000D+00
     44  0.000000D+00 -0.143866D+00 -0.443031D-01  0.000000D+00  0.000000D+00
     45  0.000000D+00  0.000000D+00  0.000000D+00  0.000000D+00  0.000000D+00
     46  0.000000D+00  0.000000D+00  0.000000D+00  0.000000D+00  0.000000D+00
               36            37            38            39            40 
     36  0.000000D+00
     37  0.000000D+00  0.000000D+00
     38  0.000000D+00  0.000000D+00  0.000000D+00
     39  0.000000D+00  0.000000D+00  0.000000D+00  0.000000D+00
     40  0.380779D-01  0.534786D-01  0.000000D+00  0.000000D+00  0.000000D+00
     41 -0.534786D-01  0.380779D-01  0.000000D+00  0.000000D+00  0.000000D+00
     42  0.133965D+00 -0.844235D-01  0.000000D+00  0.000000D+00  0.000000D+00
     43  0.844235D-01  0.133965D+00  0.000000D+00  0.000000D+00  0.000000D+00
     44  0.000000D+00  0.000000D+00  0.474145D-01  0.113765D-01  0.000000D+00
     45  0.000000D+00  0.000000D+00  0.000000D+00  0.000000D+00  0.363305D-01
     46  0.000000D+00  0.000000D+00  0.000000D+00  0.000000D+00  0.926094D-02
               41            42            43            44            45 
     41  0.000000D+00
     42  0.000000D+00  0.000000D+00
     43  0.000000D+00  0.000000D+00  0.000000D+00
     44  0.000000D+00  0.000000D+00  0.000000D+00  0.000000D+00
     45 -0.664559D-01 -0.128352D+00 -0.610333D-01  0.000000D+00  0.000000D+00
     46 -0.169401D-01 -0.163773D+00 -0.778768D-01  0.000000D+00  0.000000D+00
               46 
     46  0.000000D+00
 CI dipole matrix                   3
                1             2             3             4             5 
      1  0.000000D+00
      2 -0.203233D+01  0.000000D+00
      3  0.000000D+00 -0.218053D+01  0.000000D+00
      4  0.807884D+00  0.000000D+00 -0.324298D+01  0.000000D+00
      5  0.000000D+00  0.000000D+00  0.000000D+00  0.000000D+00  0.000000D+00
      6  0.000000D+00  0.000000D+00  0.000000D+00  0.000000D+00  0.000000D+00
      7  0.000000D+00 -0.190895D+01  0.000000D+00  0.437590D+00  0.000000D+00
      8  0.000000D+00  0.000000D+00  0.000000D+00  0.000000D+00 -0.193050D+01
      9  0.000000D+00  0.000000D+00  0.000000D+00  0.000000D+00 -0.667703D-01
     10 -0.151168D+00  0.000000D+00  0.618688D-03  0.000000D+00  0.000000D+00
     11  0.000000D+00  0.297683D+00  0.000000D+00  0.147457D+01  0.000000D+00
     12  0.167404D+00  0.000000D+00  0.114965D+00  0.000000D+00  0.000000D+00
     13  0.000000D+00  0.000000D+00  0.000000D+00  0.000000D+00  0.000000D+00
     14  0.000000D+00  0.000000D+00  0.000000D+00  0.000000D+00  0.000000D+00
     15  0.000000D+00  0.000000D+00  0.000000D+00  0.000000D+00  0.000000D+00
     16  0.000000D+00  0.000000D+00  0.000000D+00  0.000000D+00  0.000000D+00
     17  0.000000D+00 -0.644811D-01  0.000000D+00 -0.100094D+01  0.000000D+00
     18  0.000000D+00  0.000000D+00  0.000000D+00  0.000000D+00  0.000000D+00
     19  0.000000D+00  0.000000D+00  0.000000D+00  0.000000D+00  0.000000D+00
     20  0.000000D+00  0.000000D+00  0.000000D+00  0.000000D+00  0.750904D-01
     21  0.000000D+00  0.000000D+00  0.000000D+00  0.000000D+00 -0.105168D-01
     22  0.000000D+00  0.000000D+00  0.000000D+00  0.000000D+00  0.000000D+00
     23  0.000000D+00  0.000000D+00  0.000000D+00  0.000000D+00  0.000000D+00
     24 -0.156201D+00  0.000000D+00  0.859975D-01  0.000000D+00  0.000000D+00
     25  0.000000D+00 -0.165276D+00  0.000000D+00 -0.404497D+00  0.000000D+00
     26  0.000000D+00  0.000000D+00  0.000000D+00  0.000000D+00 -0.159425D+00
     27  0.000000D+00  0.000000D+00  0.000000D+00  0.000000D+00 -0.730222D-01
     28  0.105574D+00  0.000000D+00 -0.118287D-01  0.000000D+00  0.000000D+00
     29  0.000000D+00 -0.140847D+00  0.000000D+00 -0.399453D+00  0.000000D+00
     30  0.451980D-01  0.000000D+00 -0.138397D-01  0.000000D+00  0.000000D+00
     31  0.000000D+00  0.268640D-01  0.000000D+00 -0.269217D-02  0.000000D+00
     32  0.000000D+00  0.000000D+00  0.000000D+00  0.000000D+00  0.000000D+00
     33  0.000000D+00  0.000000D+00  0.000000D+00  0.000000D+00  0.000000D+00
     34  0.000000D+00  0.000000D+00  0.000000D+00  0.000000D+00  0.000000D+00
     35  0.000000D+00  0.000000D+00  0.000000D+00  0.000000D+00  0.000000D+00
     36  0.000000D+00  0.000000D+00  0.000000D+00  0.000000D+00  0.000000D+00
     37  0.000000D+00  0.000000D+00  0.000000D+00  0.000000D+00  0.000000D+00
     38  0.000000D+00  0.000000D+00  0.000000D+00  0.000000D+00  0.000000D+00
     39  0.000000D+00  0.000000D+00  0.000000D+00  0.000000D+00  0.000000D+00
     40  0.000000D+00  0.000000D+00  0.000000D+00  0.000000D+00 -0.756085D-02
     41  0.000000D+00  0.000000D+00  0.000000D+00  0.000000D+00  0.402645D-01
     42  0.000000D+00  0.000000D+00  0.000000D+00  0.000000D+00 -0.298591D-01
     43  0.000000D+00  0.000000D+00  0.000000D+00  0.000000D+00 -0.387914D-02
     44  0.000000D+00 -0.126665D+00  0.000000D+00 -0.181210D+00  0.000000D+00
     45 -0.499587D-01  0.000000D+00  0.179758D-01  0.000000D+00  0.000000D+00
     46  0.118513D-01  0.000000D+00 -0.438830D-02  0.000000D+00  0.000000D+00
                6             7             8             9            10 
      6  0.000000D+00
      7  0.000000D+00  0.000000D+00
      8 -0.667703D-01  0.000000D+00  0.000000D+00
      9  0.193050D+01  0.000000D+00  0.000000D+00  0.000000D+00
     10  0.000000D+00  0.292400D+01  0.000000D+00  0.000000D+00  0.000000D+00
     11  0.000000D+00  0.000000D+00  0.000000D+00  0.000000D+00  0.923829D+00
     12  0.000000D+00  0.103125D+00  0.000000D+00  0.000000D+00  0.000000D+00
     13  0.000000D+00  0.000000D+00  0.000000D+00  0.000000D+00  0.000000D+00
     14  0.000000D+00  0.000000D+00  0.000000D+00  0.000000D+00  0.000000D+00
     15  0.000000D+00  0.000000D+00 -0.110247D+01  0.699244D+00  0.000000D+00
     16  0.000000D+00  0.000000D+00 -0.699244D+00 -0.110247D+01  0.000000D+00
     17  0.000000D+00  0.000000D+00  0.000000D+00  0.000000D+00  0.140572D+01
     18  0.000000D+00  0.000000D+00  0.000000D+00  0.000000D+00  0.000000D+00
     19  0.000000D+00  0.000000D+00  0.000000D+00  0.000000D+00  0.000000D+00
     20 -0.105168D-01  0.000000D+00  0.000000D+00  0.000000D+00  0.000000D+00
     21 -0.750904D-01  0.000000D+00  0.000000D+00  0.000000D+00  0.000000D+00
     22  0.000000D+00  0.000000D+00 -0.429165D+00  0.454043D+00  0.000000D+00
     23  0.000000D+00  0.000000D+00 -0.454043D+00 -0.429165D+00  0.000000D+00
     24  0.000000D+00 -0.263128D+00  0.000000D+00  0.000000D+00  0.000000D+00
     25  0.000000D+00  0.000000D+00  0.000000D+00  0.000000D+00 -0.937326D+00
     26 -0.730222D-01  0.000000D+00  0.000000D+00  0.000000D+00  0.000000D+00
     27  0.159425D+00  0.000000D+00  0.000000D+00  0.000000D+00  0.000000D+00
     28  0.000000D+00 -0.154454D+00  0.000000D+00  0.000000D+00  0.000000D+00
     29  0.000000D+00  0.000000D+00  0.000000D+00  0.000000D+00 -0.463334D+00
     30  0.000000D+00  0.267989D-01  0.000000D+00  0.000000D+00  0.000000D+00
     31  0.000000D+00  0.000000D+00  0.000000D+00  0.000000D+00 -0.349430D+00
     32  0.000000D+00  0.000000D+00  0.328411D+00 -0.214619D+00  0.000000D+00
     33  0.000000D+00  0.000000D+00  0.214619D+00  0.328411D+00  0.000000D+00
     34  0.000000D+00  0.000000D+00  0.000000D+00  0.000000D+00  0.000000D+00
     35  0.000000D+00  0.000000D+00  0.000000D+00  0.000000D+00  0.000000D+00
     36  0.000000D+00  0.000000D+00  0.000000D+00  0.000000D+00  0.000000D+00
     37  0.000000D+00  0.000000D+00  0.000000D+00  0.000000D+00  0.000000D+00
     38  0.000000D+00  0.000000D+00 -0.598714D-01  0.339303D-01  0.000000D+00
     39  0.000000D+00  0.000000D+00 -0.339303D-01 -0.598714D-01  0.000000D+00
     40 -0.402645D-01  0.000000D+00  0.000000D+00  0.000000D+00  0.000000D+00
     41 -0.756085D-02  0.000000D+00  0.000000D+00  0.000000D+00  0.000000D+00
     42  0.387914D-02  0.000000D+00  0.000000D+00  0.000000D+00  0.000000D+00
     43 -0.298591D-01  0.000000D+00  0.000000D+00  0.000000D+00  0.000000D+00
     44  0.000000D+00  0.000000D+00  0.000000D+00  0.000000D+00  0.345828D+00
     45  0.000000D+00 -0.169351D-01  0.000000D+00  0.000000D+00  0.000000D+00
     46  0.000000D+00 -0.342286D-02  0.000000D+00  0.000000D+00  0.000000D+00
               11            12            13            14            15 
     11  0.000000D+00
     12 -0.151580D+01  0.000000D+00
     13  0.000000D+00  0.000000D+00  0.000000D+00
     14  0.000000D+00  0.000000D+00  0.000000D+00  0.000000D+00
     15  0.000000D+00  0.000000D+00  0.000000D+00  0.000000D+00  0.000000D+00
     16  0.000000D+00  0.000000D+00  0.000000D+00  0.000000D+00  0.000000D+00
     17  0.000000D+00  0.352567D-01  0.000000D+00  0.000000D+00  0.000000D+00
     18  0.000000D+00  0.000000D+00  0.106942D+01 -0.109538D+01  0.000000D+00
     19  0.000000D+00  0.000000D+00 -0.109538D+01 -0.106942D+01  0.000000D+00
     20  0.000000D+00  0.000000D+00  0.000000D+00  0.000000D+00 -0.650393D-01
     21  0.000000D+00  0.000000D+00  0.000000D+00  0.000000D+00  0.592613D-01
     22  0.000000D+00  0.000000D+00  0.000000D+00  0.000000D+00  0.000000D+00
     23  0.000000D+00  0.000000D+00  0.000000D+00  0.000000D+00  0.000000D+00
     24  0.286807D+00  0.000000D+00  0.000000D+00  0.000000D+00  0.000000D+00
     25  0.000000D+00  0.126006D+00  0.000000D+00  0.000000D+00  0.000000D+00
     26  0.000000D+00  0.000000D+00  0.000000D+00  0.000000D+00 -0.134264D+01
     27  0.000000D+00  0.000000D+00  0.000000D+00  0.000000D+00  0.230859D+00
     28 -0.201924D+00  0.000000D+00  0.000000D+00  0.000000D+00  0.000000D+00
     29  0.000000D+00 -0.332528D-01  0.000000D+00  0.000000D+00  0.000000D+00
     30 -0.238841D-01  0.000000D+00  0.000000D+00  0.000000D+00  0.000000D+00
     31  0.000000D+00 -0.228644D+00  0.000000D+00  0.000000D+00  0.000000D+00
     32  0.000000D+00  0.000000D+00  0.000000D+00  0.000000D+00  0.000000D+00
     33  0.000000D+00  0.000000D+00  0.000000D+00  0.000000D+00  0.000000D+00
     34  0.000000D+00  0.000000D+00  0.000000D+00  0.000000D+00  0.000000D+00
     35  0.000000D+00  0.000000D+00  0.000000D+00  0.000000D+00  0.000000D+00
     36  0.000000D+00  0.000000D+00 -0.384983D-01  0.524288D-01  0.000000D+00
     37  0.000000D+00  0.000000D+00  0.524288D-01  0.384983D-01  0.000000D+00
     38  0.000000D+00  0.000000D+00  0.000000D+00  0.000000D+00  0.000000D+00
     39  0.000000D+00  0.000000D+00  0.000000D+00  0.000000D+00  0.000000D+00
     40  0.000000D+00  0.000000D+00  0.000000D+00  0.000000D+00 -0.123888D+00
     41  0.000000D+00  0.000000D+00  0.000000D+00  0.000000D+00  0.123884D+00
     42  0.000000D+00  0.000000D+00  0.000000D+00  0.000000D+00 -0.422574D-01
     43  0.000000D+00  0.000000D+00  0.000000D+00  0.000000D+00 -0.377399D-01
     44  0.000000D+00  0.475579D+00  0.000000D+00  0.000000D+00  0.000000D+00
     45  0.350566D-01  0.000000D+00  0.000000D+00  0.000000D+00  0.000000D+00
     46 -0.120080D-01  0.000000D+00  0.000000D+00  0.000000D+00  0.000000D+00
               16            17            18            19            20 
     16  0.000000D+00
     17  0.000000D+00  0.000000D+00
     18  0.000000D+00  0.000000D+00  0.000000D+00
     19  0.000000D+00  0.000000D+00  0.000000D+00  0.000000D+00
     20 -0.592613D-01  0.000000D+00  0.000000D+00  0.000000D+00  0.000000D+00
     21 -0.650393D-01  0.000000D+00  0.000000D+00  0.000000D+00  0.000000D+00
     22  0.000000D+00  0.000000D+00  0.000000D+00  0.000000D+00  0.106914D+01
     23  0.000000D+00  0.000000D+00  0.000000D+00  0.000000D+00  0.161941D+01
     24  0.000000D+00  0.201096D+01  0.000000D+00  0.000000D+00  0.000000D+00
     25  0.000000D+00  0.000000D+00  0.000000D+00  0.000000D+00  0.000000D+00
     26 -0.230859D+00  0.000000D+00  0.000000D+00  0.000000D+00  0.000000D+00
     27 -0.134264D+01  0.000000D+00  0.000000D+00  0.000000D+00  0.000000D+00
     28  0.000000D+00 -0.732056D+00  0.000000D+00  0.000000D+00  0.000000D+00
     29  0.000000D+00  0.000000D+00  0.000000D+00  0.000000D+00  0.000000D+00
     30  0.000000D+00  0.174894D+00  0.000000D+00  0.000000D+00  0.000000D+00
     31  0.000000D+00  0.000000D+00  0.000000D+00  0.000000D+00  0.000000D+00
     32  0.000000D+00  0.000000D+00  0.000000D+00  0.000000D+00  0.254839D+00
     33  0.000000D+00  0.000000D+00  0.000000D+00  0.000000D+00  0.238629D+00
     34  0.000000D+00  0.000000D+00  0.833642D-03  0.829436D-02  0.000000D+00
     35  0.000000D+00  0.000000D+00  0.829436D-02 -0.833642D-03  0.000000D+00
     36  0.000000D+00  0.000000D+00  0.000000D+00  0.000000D+00  0.000000D+00
     37  0.000000D+00  0.000000D+00  0.000000D+00  0.000000D+00  0.000000D+00
     38  0.000000D+00  0.000000D+00  0.000000D+00  0.000000D+00 -0.266832D+00
     39  0.000000D+00  0.000000D+00  0.000000D+00  0.000000D+00 -0.219918D+00
     40  0.123884D+00  0.000000D+00  0.000000D+00  0.000000D+00  0.000000D+00
     41  0.123888D+00  0.000000D+00  0.000000D+00  0.000000D+00  0.000000D+00
     42 -0.377399D-01  0.000000D+00  0.000000D+00  0.000000D+00  0.000000D+00
     43  0.422574D-01  0.000000D+00  0.000000D+00  0.000000D+00  0.000000D+00
     44  0.000000D+00  0.000000D+00  0.000000D+00  0.000000D+00  0.000000D+00
     45  0.000000D+00 -0.853277D-01  0.000000D+00  0.000000D+00  0.000000D+00
     46  0.000000D+00 -0.130395D+00  0.000000D+00  0.000000D+00  0.000000D+00
               21            22            23            24            25 
     21  0.000000D+00
     22 -0.161941D+01  0.000000D+00
     23  0.106914D+01  0.000000D+00  0.000000D+00
     24  0.000000D+00  0.000000D+00  0.000000D+00  0.000000D+00
     25  0.000000D+00  0.000000D+00  0.000000D+00  0.180629D+01  0.000000D+00
     26  0.000000D+00 -0.457934D+00 -0.203741D+00  0.000000D+00  0.000000D+00
     27  0.000000D+00  0.203741D+00 -0.457934D+00  0.000000D+00  0.000000D+00
     28  0.000000D+00  0.000000D+00  0.000000D+00  0.000000D+00  0.122627D+01
     29  0.000000D+00  0.000000D+00  0.000000D+00 -0.393149D+00  0.000000D+00
     30  0.000000D+00  0.000000D+00  0.000000D+00  0.000000D+00  0.593089D+00
     31  0.000000D+00  0.000000D+00  0.000000D+00 -0.477052D-01  0.000000D+00
     32 -0.238629D+00  0.000000D+00  0.000000D+00  0.000000D+00  0.000000D+00
     33  0.254839D+00  0.000000D+00  0.000000D+00  0.000000D+00  0.000000D+00
     34  0.000000D+00  0.000000D+00  0.000000D+00  0.000000D+00  0.000000D+00
     35  0.000000D+00  0.000000D+00  0.000000D+00  0.000000D+00  0.000000D+00
     36  0.000000D+00  0.000000D+00  0.000000D+00  0.000000D+00  0.000000D+00
     37  0.000000D+00  0.000000D+00  0.000000D+00  0.000000D+00  0.000000D+00
     38  0.219918D+00  0.000000D+00  0.000000D+00  0.000000D+00  0.000000D+00
     39 -0.266832D+00  0.000000D+00  0.000000D+00  0.000000D+00  0.000000D+00
     40  0.000000D+00  0.115328D+00 -0.686690D-01  0.000000D+00  0.000000D+00
     41  0.000000D+00 -0.686690D-01 -0.115328D+00  0.000000D+00  0.000000D+00
     42  0.000000D+00 -0.548428D-01 -0.812971D-01  0.000000D+00  0.000000D+00
     43  0.000000D+00 -0.812971D-01  0.548428D-01  0.000000D+00  0.000000D+00
     44  0.000000D+00  0.000000D+00  0.000000D+00  0.318901D+00  0.000000D+00
     45  0.000000D+00  0.000000D+00  0.000000D+00  0.000000D+00  0.105104D+00
     46  0.000000D+00  0.000000D+00  0.000000D+00  0.000000D+00 -0.189020D+00
               26            27            28            29            30 
     26  0.000000D+00
     27  0.000000D+00  0.000000D+00
     28  0.000000D+00  0.000000D+00  0.000000D+00
     29  0.000000D+00  0.000000D+00  0.104536D+01  0.000000D+00
     30  0.000000D+00  0.000000D+00  0.000000D+00 -0.121421D+01  0.000000D+00
     31  0.000000D+00  0.000000D+00  0.826078D+00  0.000000D+00  0.650524D+00
     32  0.608704D+00 -0.113215D+00  0.000000D+00  0.000000D+00  0.000000D+00
     33  0.113215D+00  0.608704D+00  0.000000D+00  0.000000D+00  0.000000D+00
     34  0.000000D+00  0.000000D+00  0.000000D+00  0.000000D+00  0.000000D+00
     35  0.000000D+00  0.000000D+00  0.000000D+00  0.000000D+00  0.000000D+00
     36  0.000000D+00  0.000000D+00  0.000000D+00  0.000000D+00  0.000000D+00
     37  0.000000D+00  0.000000D+00  0.000000D+00  0.000000D+00  0.000000D+00
     38  0.431059D+00 -0.522592D-01  0.000000D+00  0.000000D+00  0.000000D+00
     39  0.522592D-01  0.431059D+00  0.000000D+00  0.000000D+00  0.000000D+00
     40  0.000000D+00  0.000000D+00  0.000000D+00  0.000000D+00  0.000000D+00
     41  0.000000D+00  0.000000D+00  0.000000D+00  0.000000D+00  0.000000D+00
     42  0.000000D+00  0.000000D+00  0.000000D+00  0.000000D+00  0.000000D+00
     43  0.000000D+00  0.000000D+00  0.000000D+00  0.000000D+00  0.000000D+00
     44  0.000000D+00  0.000000D+00  0.227289D+00  0.000000D+00  0.798692D+00
     45  0.000000D+00  0.000000D+00  0.000000D+00  0.372683D+00  0.000000D+00
     46  0.000000D+00  0.000000D+00  0.000000D+00  0.394035D-01  0.000000D+00
               31            32            33            34            35 
     31  0.000000D+00
     32  0.000000D+00  0.000000D+00
     33  0.000000D+00  0.000000D+00  0.000000D+00
     34  0.000000D+00  0.000000D+00  0.000000D+00  0.000000D+00
     35  0.000000D+00  0.000000D+00  0.000000D+00  0.000000D+00  0.000000D+00
     36  0.000000D+00  0.000000D+00  0.000000D+00 -0.339924D+00 -0.138783D+01
     37  0.000000D+00  0.000000D+00  0.000000D+00 -0.138783D+01  0.339924D+00
     38  0.000000D+00  0.000000D+00  0.000000D+00  0.000000D+00  0.000000D+00
     39  0.000000D+00  0.000000D+00  0.000000D+00  0.000000D+00  0.000000D+00
     40  0.000000D+00  0.933196D+00 -0.908098D+00  0.000000D+00  0.000000D+00
     41  0.000000D+00 -0.908098D+00 -0.933196D+00  0.000000D+00  0.000000D+00
     42  0.000000D+00 -0.486818D+00 -0.446836D+00  0.000000D+00  0.000000D+00
     43  0.000000D+00 -0.446836D+00  0.486818D+00  0.000000D+00  0.000000D+00
     44  0.000000D+00  0.000000D+00  0.000000D+00  0.000000D+00  0.000000D+00
     45  0.887723D+00  0.000000D+00  0.000000D+00  0.000000D+00  0.000000D+00
     46  0.802301D+00  0.000000D+00  0.000000D+00  0.000000D+00  0.000000D+00
               36            37            38            39            40 
     36  0.000000D+00
     37  0.000000D+00  0.000000D+00
     38  0.000000D+00  0.000000D+00  0.000000D+00
     39  0.000000D+00  0.000000D+00  0.000000D+00  0.000000D+00
     40  0.000000D+00  0.000000D+00 -0.194220D+00  0.214517D+00  0.000000D+00
     41  0.000000D+00  0.000000D+00  0.214517D+00  0.194220D+00  0.000000D+00
     42  0.000000D+00  0.000000D+00 -0.106001D+01 -0.856056D+00  0.000000D+00
     43  0.000000D+00  0.000000D+00 -0.856056D+00  0.106001D+01  0.000000D+00
     44  0.000000D+00  0.000000D+00  0.000000D+00  0.000000D+00  0.000000D+00
     45  0.000000D+00  0.000000D+00  0.000000D+00  0.000000D+00  0.000000D+00
     46  0.000000D+00  0.000000D+00  0.000000D+00  0.000000D+00  0.000000D+00
               41            42            43            44            45 
     41  0.000000D+00
     42  0.000000D+00  0.000000D+00
     43  0.000000D+00  0.000000D+00  0.000000D+00
     44  0.000000D+00  0.000000D+00  0.000000D+00  0.000000D+00
     45  0.000000D+00  0.000000D+00  0.000000D+00 -0.913675D+00  0.000000D+00
     46  0.000000D+00  0.000000D+00  0.000000D+00  0.106511D+01  0.000000D+00
               46 
     46  0.000000D+00
 All to All state transition transition dipole moments (Au):
     state I   state J         X           Y           Z
         0        0          0.5606112369602E-15       0.1929169764130E-15       0.2126116740781E-13
         0        1          0.1216996155513E-14      -0.1614209552471E-14       -2.032325902879    
         1        1          0.1278818332784E-14      -0.4783391950072E-15       0.1899670025524E-13
         0        2         -0.6837431426537E-15       0.6007501643999E-15      -0.2419160759068E-14
         1        2         -0.1088171348678E-14      -0.1134988115068E-14       -2.180533560299    
         2        2         -0.1809402781835E-14      -0.8210658952273E-15       0.1111745189232E-13
         0        3         -0.3291592296260E-13       0.1263004823295E-13       0.8078844241438    
         1        3          0.8250399914525E-15      -0.2292844397615E-15       0.1868590555128E-13
         2        3         -0.3294804325315E-13       0.1235901968110E-13       -3.242982243990    
         3        3          0.7581369194455E-15      -0.1112600463943E-15       0.5765974727145E-14
         0        4         -0.4488131520223           -1.378873254004           0.2277989033237E-14
         1        4          0.2537937003229E-14       0.3365187153816E-14       0.2085637437794E-15
         2        4         -0.4417874000284           -1.357288277115          -0.2887641230502E-14
[...]

 CI (t =     24.03887 fs)
 Step =                 9938
 Current electric field (a.u.):
   Ex=  0.0000000   Ey=  0.0000000   Ez= -0.0012886
 CI Dipole moment (au):
    X=    -0.2378604795E-14    Y=    -0.2744310449E-14    Z=    -0.4283585942E-01 Tot =    0.4283585942E-01
 Energy =       -1.004620178167    

 CI (t =     24.04129 fs)
 Step =                 9939
 Current electric field (a.u.):
   Ex=  0.0000000   Ey=  0.0000000   Ez= -0.0012775
 CI Dipole moment (au):
    X=    -0.1376751197E-14    Y=    -0.1464245186E-14    Z=    -0.4246338018E-01 Tot =    0.4246338018E-01
 Energy =       -1.004620655269    

 CI (t =     24.04371 fs)
 Step =                 9940
 Current electric field (a.u.):
   Ex=  0.0000000   Ey=  0.0000000   Ez= -0.0012664
 CI Dipole moment (au):
    X=    -0.3613737762E-15    Y=    -0.1995439595E-15    Z=    -0.4208907590E-01 Tot =    0.4208907590E-01
 Energy =       -1.004621130519    

 CI (t =     24.04613 fs)
 Step =                 9941
 Current electric field (a.u.):
   Ex=  0.0000000   Ey=  0.0000000   Ez= -0.0012552
 CI Dipole moment (au):
    X=     0.6681862189E-15    Y=     0.1044557572E-14    Z=    -0.4171296619E-01 Tot =    0.4171296619E-01
 Energy =       -1.004621603830    

 CI (t =     24.04855 fs)
 Step =                 9942
 Current electric field (a.u.):
   Ex=  0.0000000   Ey=  0.0000000   Ez= -0.0012440
 CI Dipole moment (au):
    X=     0.1711050617E-14    Y=     0.2266204252E-14    Z=    -0.4133507038E-01 Tot =    0.4133507038E-01
 Energy =       -1.004622075111    

 CI (t =     24.05097 fs)
 Step =                 9943
 Current electric field (a.u.):
   Ex=  0.0000000   Ey=  0.0000000   Ez= -0.0012327
 CI Dipole moment (au):
    X=     0.2764949958E-14    Y=     0.3466629851E-14    Z=    -0.4095540759E-01 Tot =    0.4095540759E-01
 Energy =       -1.004622544275    

 CI (t =     24.05339 fs)
 Step =                 9944
 Current electric field (a.u.):
   Ex=  0.0000000   Ey=  0.0000000   Ez= -0.0012213
 CI Dipole moment (au):
    X=     0.3826584555E-14    Y=     0.4649377669E-14    Z=    -0.4057399666E-01 Tot =    0.4057399666E-01
 Energy =       -1.004623011235    

 CI (t =     24.05580 fs)
 Step =                 9945
 Current electric field (a.u.):
   Ex=  0.0000000   Ey=  0.0000000   Ez= -0.0012099
 CI Dipole moment (au):
    X=     0.4892137981E-14    Y=     0.5819166290E-14    Z=    -0.4019085623E-01 Tot =    0.4019085623E-01
 Energy =       -1.004623475904    

 CI (t =     24.05822 fs)
 Step =                 9946
 Current electric field (a.u.):
   Ex=  0.0000000   Ey=  0.0000000   Ez= -0.0011984
 CI Dipole moment (au):
    X=     0.5957855191E-14    Y=     0.6980590802E-14    Z=    -0.3980600466E-01 Tot =    0.3980600466E-01
 Energy =       -1.004623938198    

 CI (t =     24.06064 fs)
 Step =                 9947
 Current electric field (a.u.):
   Ex=  0.0000000   Ey=  0.0000000   Ez= -0.0011868
 CI Dipole moment (au):
    X=     0.7020587042E-14    Y=     0.8136876075E-14    Z=    -0.3941946010E-01 Tot =    0.3941946010E-01
 Energy =       -1.004624398031    

 CI (t =     24.06306 fs)
 Step =                 9948
 Current electric field (a.u.):
   Ex=  0.0000000   Ey=  0.0000000   Ez= -0.0011752
 CI Dipole moment (au):
    X=     0.8078208791E-14    Y=     0.9288889547E-14    Z=    -0.3903124044E-01 Tot =    0.3903124044E-01
 Energy =       -1.004624855320    

 CI (t =     24.06548 fs)
 Step =                 9949
 Current electric field (a.u.):
   Ex=  0.0000000   Ey=  0.0000000   Ez= -0.0011635
 CI Dipole moment (au):
    X=     0.9129841083E-14    Y=     0.1043457797E-13    Z=    -0.3864136335E-01 Tot =    0.3864136335E-01
 Energy =       -1.004625309982    

 CI (t =     24.06790 fs)
 Step =                 9950
 Current electric field (a.u.):
   Ex=  0.0000000   Ey=  0.0000000   Ez= -0.0011518
 CI Dipole moment (au):
    X=     0.1017583474E-13    Y=     0.1156892273E-13    Z=    -0.3824984627E-01 Tot =    0.3824984627E-01
 Energy =       -1.004625761935    

 CI (t =     24.07032 fs)
 Step =                 9951
 Current electric field (a.u.):
   Ex=  0.0000000   Ey=  0.0000000   Ez= -0.0011400
 CI Dipole moment (au):
    X=     0.1121751988E-13    Y=     0.1268442320E-13    Z=    -0.3785670639E-01 Tot =    0.3785670639E-01
 Energy =       -1.004626211096    

 CI (t =     24.07274 fs)
 Step =                 9952
 Current electric field (a.u.):
   Ex=  0.0000000   Ey=  0.0000000   Ez= -0.0011281
 CI Dipole moment (au):
    X=     0.1225675900E-13    Y=     0.1377203060E-13    Z=    -0.3746196071E-01 Tot =    0.3746196071E-01
 Energy =       -1.004626657387    

 CI (t =     24.07516 fs)
 Step =                 9953
 Current electric field (a.u.):
   Ex=  0.0000000   Ey=  0.0000000   Ez= -0.0011162
 CI Dipole moment (au):
    X=     0.1329537660E-13    Y=     0.1482238113E-13    Z=    -0.3706562595E-01 Tot =    0.3706562595E-01
 Energy =       -1.004627100727    

 CI (t =     24.07757 fs)
 Step =                 9954
 Current electric field (a.u.):
   Ex=  0.0000000   Ey=  0.0000000   Ez= -0.0011042
 CI Dipole moment (au):
    X=     0.1433455876E-13    Y=     0.1582712723E-13    Z=    -0.3666771866E-01 Tot =    0.3666771866E-01
 Energy =       -1.004627541037    

 CI (t =     24.07999 fs)
 Step =                 9955
 Current electric field (a.u.):
   Ex=  0.0000000   Ey=  0.0000000   Ez= -0.0010922
 CI Dipole moment (au):
    X=     0.1537432174E-13    Y=     0.1678014988E-13    Z=    -0.3626825515E-01 Tot =    0.3626825515E-01
 Energy =       -1.004627978239    

 CI (t =     24.08241 fs)
 Step =                 9956
 Current electric field (a.u.):
   Ex=  0.0000000   Ey=  0.0000000   Ez= -0.0010801
 CI Dipole moment (au):
    X=     0.1641313831E-13    Y=     0.1767845309E-13    Z=    -0.3586725152E-01 Tot =    0.3586725152E-01
 Energy =       -1.004628412256    

 CI (t =     24.08483 fs)
 Step =                 9957
 Current electric field (a.u.):
   Ex=  0.0000000   Ey=  0.0000000   Ez= -0.0010679
 CI Dipole moment (au):
    X=     0.1744778509E-13    Y=     0.1852259342E-13    Z=    -0.3546472364E-01 Tot =    0.3546472364E-01
 Energy =       -1.004628843011    

 CI (t =     24.08725 fs)
 Step =                 9958
 Current electric field (a.u.):
   Ex=  0.0000000   Ey=  0.0000000   Ez= -0.0010557
 CI Dipole moment (au):
    X=     0.1847343910E-13    Y=     0.1931657241E-13    Z=    -0.3506068720E-01 Tot =    0.3506068720E-01
 Energy =       -1.004629270429    

 CI (t =     24.08967 fs)
 Step =                 9959
 Current electric field (a.u.):
   Ex=  0.0000000   Ey=  0.0000000   Ez= -0.0010435
 CI Dipole moment (au):
    X=     0.1948401088E-13    Y=     0.2006720694E-13    Z=    -0.3465515768E-01 Tot =    0.3465515768E-01
 Energy =       -1.004629694434    

 CI (t =     24.09209 fs)
 Step =                 9960
 Current electric field (a.u.):
   Ex=  0.0000000   Ey=  0.0000000   Ez= -0.0010312
 CI Dipole moment (au):
    X=     0.2047266391E-13    Y=     0.2078307677E-13    Z=    -0.3424815036E-01 Tot =    0.3424815036E-01
 Energy =       -1.004630114953    

 CI (t =     24.09451 fs)
 Step =                 9961
 Current electric field (a.u.):
   Ex=  0.0000000   Ey=  0.0000000   Ez= -0.0010188
 CI Dipole moment (au):
    X=     0.2143243927E-13    Y=     0.2147321713E-13    Z=    -0.3383968031E-01 Tot =    0.3383968031E-01
 Energy =       -1.004630531912    

 CI (t =     24.09693 fs)
 Step =                 9962
 Current electric field (a.u.):
   Ex=  0.0000000   Ey=  0.0000000   Ez= -0.0010064
 CI Dipole moment (au):
    X=     0.2235688800E-13    Y=     0.2214576492E-13    Z=    -0.3342976245E-01 Tot =    0.3342976245E-01
 Energy =       -1.004630945238    

 CI (t =     24.09934 fs)
 Step =                 9963
 Current electric field (a.u.):
   Ex=  0.0000000   Ey=  0.0000000   Ez= -0.0009939
 CI Dipole moment (au):
    X=     0.2324061212E-13    Y=     0.2280677404E-13    Z=    -0.3301841149E-01 Tot =    0.3301841149E-01
 Energy =       -1.004631354861    

 CI (t =     24.10176 fs)
 Step =                 9964
 Current electric field (a.u.):
   Ex=  0.0000000   Ey=  0.0000000   Ez= -0.0009814
 CI Dipole moment (au):
    X=     0.2407963056E-13    Y=     0.2345938733E-13    Z=    -0.3260564196E-01 Tot =    0.3260564196E-01
 Energy =       -1.004631760708    

 CI (t =     24.10418 fs)
 Step =                 9965
 Current electric field (a.u.):
   Ex=  0.0000000   Ey=  0.0000000   Ez= -0.0009688
 CI Dipole moment (au):
    X=     0.2487151477E-13    Y=     0.2410349395E-13    Z=    -0.3219146823E-01 Tot =    0.3219146823E-01
 Energy =       -1.004632162709    

 CI (t =     24.10660 fs)
 Step =                 9966
 Current electric field (a.u.):
   Ex=  0.0000000   Ey=  0.0000000   Ez= -0.0009562
 CI Dipole moment (au):
    X=     0.2561527661E-13    Y=     0.2473592134E-13    Z=    -0.3177590452E-01 Tot =    0.3177590452E-01
 Energy =       -1.004632560795    

 CI (t =     24.10902 fs)
 Step =                 9967
 Current electric field (a.u.):
   Ex=  0.0000000   Ey=  0.0000000   Ez= -0.0009435
 CI Dipole moment (au):
    X=     0.2631103159E-13    Y=     0.2535112395E-13    Z=    -0.3135896484E-01 Tot =    0.3135896484E-01
 Energy =       -1.004632954897    

 CI (t =     24.11144 fs)
 Step =                 9968
 Current electric field (a.u.):
   Ex=  0.0000000   Ey=  0.0000000   Ez= -0.0009308
 CI Dipole moment (au):
    X=     0.2695949745E-13    Y=     0.2594224966E-13    Z=    -0.3094066310E-01 Tot =    0.3094066310E-01
 Energy =       -1.004633344947    

 CI (t =     24.11386 fs)
 Step =                 9969
 Current electric field (a.u.):
   Ex=  0.0000000   Ey=  0.0000000   Ez= -0.0009180
 CI Dipole moment (au):
    X=     0.2756141485E-13    Y=     0.2650240366E-13    Z=    -0.3052101302E-01 Tot =    0.3052101302E-01
 Energy =       -1.004633730877    

 CI (t =     24.11628 fs)
 Step =                 9970
 Current electric field (a.u.):
   Ex=  0.0000000   Ey=  0.0000000   Ez= -0.0009052
 CI Dipole moment (au):
    X=     0.2811698996E-13    Y=     0.2702589754E-13    Z=    -0.3010002821E-01 Tot =    0.3010002821E-01
 Energy =       -1.004634112622    

 CI (t =     24.11870 fs)
 Step =                 9971
 Current electric field (a.u.):
   Ex=  0.0000000   Ey=  0.0000000   Ez= -0.0008924
 CI Dipole moment (au):
    X=     0.2862545484E-13    Y=     0.2750927481E-13    Z=    -0.2967772211E-01 Tot =    0.2967772211E-01
 Energy =       -1.004634490115    

 CI (t =     24.12111 fs)
 Step =                 9972
 Current electric field (a.u.):
   Ex=  0.0000000   Ey=  0.0000000   Ez= -0.0008794
 CI Dipole moment (au):
    X=     0.2908482245E-13    Y=     0.2795194063E-13    Z=    -0.2925410807E-01 Tot =    0.2925410807E-01
 Energy =       -1.004634863290    

 CI (t =     24.12353 fs)
 Step =                 9973
 Current electric field (a.u.):
   Ex=  0.0000000   Ey=  0.0000000   Ez= -0.0008665
 CI Dipole moment (au):
    X=     0.2949188096E-13    Y=     0.2835628956E-13    Z=    -0.2882919929E-01 Tot =    0.2882919929E-01
 Energy =       -1.004635232085    

 CI (t =     24.12595 fs)
 Step =                 9974
 Current electric field (a.u.):
   Ex=  0.0000000   Ey=  0.0000000   Ez= -0.0008535
 CI Dipole moment (au):
    X=     0.2984243250E-13    Y=     0.2872730714E-13    Z=    -0.2840300887E-01 Tot =    0.2840300887E-01
 Energy =       -1.004635596434    

 CI (t =     24.12837 fs)
 Step =                 9975
 Current electric field (a.u.):
   Ex=  0.0000000   Ey=  0.0000000   Ez= -0.0008404
 CI Dipole moment (au):
    X=     0.3013174142E-13    Y=     0.2907170829E-13    Z=    -0.2797554979E-01 Tot =    0.2797554979E-01
 Energy =       -1.004635956275    

 CI (t =     24.13079 fs)
 Step =                 9976
 Current electric field (a.u.):
   Ex=  0.0000000   Ey=  0.0000000   Ez= -0.0008274
 CI Dipole moment (au):
    X=     0.3035512199E-13    Y=     0.2939675151E-13    Z=    -0.2754683495E-01 Tot =    0.2754683495E-01
 Energy =       -1.004636311546    

 CI (t =     24.13321 fs)
 Step =                 9977
 Current electric field (a.u.):
   Ex=  0.0000000   Ey=  0.0000000   Ez= -0.0008142
 CI Dipole moment (au):
    X=     0.3050857207E-13    Y=     0.2970892152E-13    Z=    -0.2711687717E-01 Tot =    0.2711687717E-01
 Energy =       -1.004636662185    

 CI (t =     24.13563 fs)
 Step =                 9978
 Current electric field (a.u.):
   Ex=  0.0000000   Ey=  0.0000000   Ez= -0.0008010
 CI Dipole moment (au):
    X=     0.3058935117E-13    Y=     0.3001269495E-13    Z=    -0.2668568916E-01 Tot =    0.2668568916E-01
 Energy =       -1.004637008131    

 CI (t =     24.13805 fs)
 Step =                 9979
 Current electric field (a.u.):
   Ex=  0.0000000   Ey=  0.0000000   Ez= -0.0007878
 CI Dipole moment (au):
    X=     0.3059640933E-13    Y=     0.3030959092E-13    Z=    -0.2625328359E-01 Tot =    0.2625328359E-01
 Energy =       -1.004637349324    

 CI (t =     24.14047 fs)
 Step =                 9980
 Current electric field (a.u.):
   Ex=  0.0000000   Ey=  0.0000000   Ez= -0.0007746
 CI Dipole moment (au):
    X=     0.3053059690E-13    Y=     0.3059766212E-13    Z=    -0.2581967304E-01 Tot =    0.2581967304E-01
 Energy =       -1.004637685704    

 CI (t =     24.14288 fs)
 Step =                 9981
 Current electric field (a.u.):
   Ex=  0.0000000   Ey=  0.0000000   Ez= -0.0007613
 CI Dipole moment (au):
    X=     0.3039462020E-13    Y=     0.3087151101E-13    Z=    -0.2538487008E-01 Tot =    0.2538487008E-01
 Energy =       -1.004638017213    

 CI (t =     24.14530 fs)
 Step =                 9982
 Current electric field (a.u.):
   Ex=  0.0000000   Ey=  0.0000000   Ez= -0.0007479
 CI Dipole moment (au):
    X=     0.3019274889E-13    Y=     0.3112283035E-13    Z=    -0.2494888720E-01 Tot =    0.2494888720E-01
 Energy =       -1.004638343793    

 CI (t =     24.14772 fs)
 Step =                 9983
 Current electric field (a.u.):
   Ex=  0.0000000   Ey=  0.0000000   Ez= -0.0007346
 CI Dipole moment (au):
    X=     0.2993032058E-13    Y=     0.3134138256E-13    Z=    -0.2451173687E-01 Tot =    0.2451173687E-01
 Energy =       -1.004638665386    

 CI (t =     24.15014 fs)
 Step =                 9984
 Current electric field (a.u.):
   Ex=  0.0000000   Ey=  0.0000000   Ez= -0.0007212
 CI Dipole moment (au):
    X=     0.2961312082E-13    Y=     0.3151626154E-13    Z=    -0.2407343154E-01 Tot =    0.2407343154E-01
 Energy =       -1.004638981935    

 CI (t =     24.15256 fs)
 Step =                 9985
 Current electric field (a.u.):
   Ex=  0.0000000   Ey=  0.0000000   Ez= -0.0007077
 CI Dipole moment (au):
    X=     0.2924673656E-13    Y=     0.3163723529E-13    Z=    -0.2363398364E-01 Tot =    0.2363398364E-01
 Energy =       -1.004639293385    

 CI (t =     24.15498 fs)
 Step =                 9986
 Current electric field (a.u.):
   Ex=  0.0000000   Ey=  0.0000000   Ez= -0.0006942
 CI Dipole moment (au):
    X=     0.2883598482E-13    Y=     0.3169595513E-13    Z=    -0.2319340560E-01 Tot =    0.2319340560E-01
 Energy =       -1.004639599679    

 CI (t =     24.15740 fs)
 Step =                 9987
 Current electric field (a.u.):
   Ex=  0.0000000   Ey=  0.0000000   Ez= -0.0006807
 CI Dipole moment (au):
    X=     0.2838450602E-13    Y=     0.3168684031E-13    Z=    -0.2275170984E-01 Tot =    0.2275170984E-01
 Energy =       -1.004639900764    

 CI (t =     24.15982 fs)
 Step =                 9988
 Current electric field (a.u.):
   Ex=  0.0000000   Ey=  0.0000000   Ez= -0.0006671
 CI Dipole moment (au):
    X=     0.2789458395E-13    Y=     0.3160750025E-13    Z=    -0.2230890880E-01 Tot =    0.2230890880E-01
 Energy =       -1.004640196584    

 CI (t =     24.16224 fs)
 Step =                 9989
 Current electric field (a.u.):
   Ex=  0.0000000   Ey=  0.0000000   Ez= -0.0006535
 CI Dipole moment (au):
    X=     0.2736721741E-13    Y=     0.3145863313E-13    Z=    -0.2186501495E-01 Tot =    0.2186501495E-01
 Energy =       -1.004640487088    

 CI (t =     24.16465 fs)
 Step =                 9990
 Current electric field (a.u.):
   Ex=  0.0000000   Ey=  0.0000000   Ez= -0.0006399
 CI Dipole moment (au):
    X=     0.2680242690E-13    Y=     0.3124342534E-13    Z=    -0.2142004077E-01 Tot =    0.2142004077E-01
 Energy =       -1.004640772222    

 CI (t =     24.16707 fs)
 Step =                 9991
 Current electric field (a.u.):
   Ex=  0.0000000   Ey=  0.0000000   Ez= -0.0006263
 CI Dipole moment (au):
    X=     0.2619974142E-13    Y=     0.3096655834E-13    Z=    -0.2097399879E-01 Tot =    0.2097399879E-01
 Energy =       -1.004641051934    

 CI (t =     24.16949 fs)
 Step =                 9992
 Current electric field (a.u.):
   Ex=  0.0000000   Ey=  0.0000000   Ez= -0.0006126
 CI Dipole moment (au):
    X=     0.2555878062E-13    Y=     0.3063299373E-13    Z=    -0.2052690158E-01 Tot =    0.2052690158E-01
 Energy =       -1.004641326173    

 CI (t =     24.17191 fs)
 Step =                 9993
 Current electric field (a.u.):
   Ex=  0.0000000   Ey=  0.0000000   Ez= -0.0005988
 CI Dipole moment (au):
    X=     0.2487983189E-13    Y=     0.3024674337E-13    Z=    -0.2007876176E-01 Tot =    0.2007876176E-01
 Energy =       -1.004641594888    

 CI (t =     24.17433 fs)
 Step =                 9994
 Current electric field (a.u.):
   Ex=  0.0000000   Ey=  0.0000000   Ez= -0.0005851
 CI Dipole moment (au):
    X=     0.2416432251E-13    Y=     0.2980983376E-13    Z=    -0.1962959202E-01 Tot =    0.1962959202E-01
 Energy =       -1.004641858030    

 CI (t =     24.17675 fs)
 Step =                 9995
 Current electric field (a.u.):
   Ex=  0.0000000   Ey=  0.0000000   Ez= -0.0005713
 CI Dipole moment (au):
    X=     0.2341510400E-13    Y=     0.2932164152E-13    Z=    -0.1917940513E-01 Tot =    0.1917940513E-01
 Energy =       -1.004642115549    

 CI (t =     24.17917 fs)
 Step =                 9996
 Current electric field (a.u.):
   Ex=  0.0000000   Ey=  0.0000000   Ez= -0.0005575
 CI Dipole moment (au):
    X=     0.2263649642E-13    Y=     0.2877871564E-13    Z=    -0.1872821391E-01 Tot =    0.1872821391E-01
 Energy =       -1.004642367397    

 CI (t =     24.18159 fs)
 Step =                 9997
 Current electric field (a.u.):
   Ex=  0.0000000   Ey=  0.0000000   Ez= -0.0005436
 CI Dipole moment (au):
    X=     0.2183407951E-13    Y=     0.2817512226E-13    Z=    -0.1827603128E-01 Tot =    0.1827603128E-01
 Energy =       -1.004642613527    

 CI (t =     24.18401 fs)
 Step =                 9998
 Current electric field (a.u.):
   Ex=  0.0000000   Ey=  0.0000000   Ez= -0.0005298
 CI Dipole moment (au):
    X=     0.2101425903E-13    Y=     0.2750326112E-13    Z=    -0.1782287027E-01 Tot =    0.1782287027E-01
 Energy =       -1.004642853891    

 CI (t =     24.18642 fs)
 Step =                 9999
 Current electric field (a.u.):
   Ex=  0.0000000   Ey=  0.0000000   Ez= -0.0005159
 CI Dipole moment (au):
    X=     0.2018367351E-13    Y=     0.2675502536E-13    Z=    -0.1736874400E-01 Tot =    0.1736874400E-01
 Energy =       -1.004643088442    

 CI (t =     24.18884 fs)
 Step =                10000
 Current electric field (a.u.):
   Ex=  0.0000000   Ey=  0.0000000   Ez= -0.0005019
 CI Dipole moment (au):
    X=     0.1934853333E-13    Y=     0.2592311950E-13    Z=    -0.1691366570E-01 Tot =    0.1691366570E-01
 Energy =       -1.004643317136    
 Leave Link  912 at Tue Dec 20 08:06:44 2016, MaxMem=  1610612736 cpu:             274.3 elap:              34.4
 (Enter /home1/gaussian/gdv/I03P/gdv/l9999.exe)

 This type of calculation cannot be archived.


 A MAN BEGINS CUTTING HIS WISDOM TEETH THE 1ST
 TIME HE BITES OFF MORE THAN HE CAN CHEW.
 Job cpu time:       0 days  0 hours  4 minutes 48.0 seconds.
 Elapsed time:       0 days  0 hours  0 minutes 36.5 seconds.
 File lengths (MBytes):  RWF=     13 Int=      2 D2E=      0 Chk=      1 Scr=      1
 Normal termination of Gaussian DV at Tue Dec 20 08:06:44 2016.
