 Entering Gaussian System, Link 0=gdv
 Input=h2-3Az.gjf
 Output=h2-3Az.log
 Initial command:
 /home1/gaussian/gdv/I03P/gdv/l1.exe "/state/partition1/597574.1.stf_r620.q/Gau-22410.inp" -scrdir="/state/partition1/597574.1.stf_r620.q/"
 Entering Link 1 = /home1/gaussian/gdv/I03P/gdv/l1.exe PID=     22411.
  
 Copyright (c) 1988,1990,1992,1993,1995,1998,2003,2009,2015,
            Gaussian, Inc.  All Rights Reserved.
  
 This is the private, development version of
 the Gaussian(R) DV system of programs. It is based on
 the Gaussian(R) 09 system (copyright 2009, Gaussian, Inc.),
 the Gaussian(R) 03 system (copyright 2003, Gaussian, Inc.),
 the Gaussian(R) 98 system (copyright 1998, Gaussian, Inc.),
 the Gaussian(R) 94 system (copyright 1995, Gaussian, Inc.),
 the Gaussian 92(TM) system (copyright 1992, Gaussian, Inc.),
 the Gaussian 90(TM) system (copyright 1990, Gaussian, Inc.),
 the Gaussian 88(TM) system (copyright 1988, Gaussian, Inc.),
 the Gaussian 86(TM) system (copyright 1986, Carnegie Mellon
 University), and the Gaussian 82(TM) system (copyright 1983,
 Carnegie Mellon University). Gaussian is a federally registered
 trademark of Gaussian, Inc.
  
 This software contains proprietary and confidential information,
 including trade secrets, belonging to Gaussian, Inc.
  
 This software is provided under written license and may be
 used, copied, transmitted, or stored only in accord with that
 written license.
  
 The following legend is applicable only to US Government
 contracts under FAR:
  
                    RESTRICTED RIGHTS LEGEND
  
 Use, reproduction and disclosure by the US Government is
 subject to restrictions as set forth in subparagraphs (a)
 and (c) of the Commercial Computer Software - Restricted
 Rights clause in FAR 52.227-19.
  
 Gaussian, Inc.
 340 Quinnipiac St., Bldg. 40, Wallingford CT 06492
  
  
 ---------------------------------------------------------------
 Warning -- This program may not be used in any manner that
 competes with the business of Gaussian, Inc. or will provide
 assistance to any competitor of Gaussian, Inc.  The licensee
 of this program is prohibited from giving any competitor of
 Gaussian, Inc. access to this program.  By using this program,
 the user acknowledges that Gaussian, Inc. is engaged in the
 business of creating and licensing software in the field of
 computational chemistry and represents and warrants to the
 licensee that it is not a competitor of Gaussian, Inc. and that
 it will not use this program in any manner prohibited above.
 ---------------------------------------------------------------
  

 Cite this work as:
 Gaussian Development Version, Revision I.03+,
 M. J. Frisch, G. W. Trucks, H. B. Schlegel, G. E. Scuseria, 
 M. A. Robb, J. R. Cheeseman, G. Scalmani, V. Barone, B. Mennucci, 
 G. A. Petersson, H. Nakatsuji, M. Caricato, X. Li, H. P. Hratchian, 
 J. Bloino, B. G. Janesko, A. F. Izmaylov, A. Marenich, F. Lipparini, 
 G. Zheng, J. L. Sonnenberg, W. Liang, M. Hada, M. Ehara, K. Toyota, 
 R. Fukuda, J. Hasegawa, M. Ishida, T. Nakajima, Y. Honda, O. Kitao, 
 H. Nakai, T. Vreven, K. Throssell, J. A. Montgomery, Jr., 
 J. E. Peralta, F. Ogliaro, M. Bearpark, J. J. Heyd, E. Brothers, 
 K. N. Kudin, V. N. Staroverov, T. Keith, R. Kobayashi, J. Normand, 
 K. Raghavachari, A. Rendell, J. C. Burant, S. S. Iyengar, J. Tomasi, 
 M. Cossi, N. Rega, J. M. Millam, M. Klene, J. E. Knox, J. B. Cross, 
 V. Bakken, C. Adamo, J. Jaramillo, R. Gomperts, R. E. Stratmann, 
 O. Yazyev, A. J. Austin, R. Cammi, C. Pomelli, J. W. Ochterski, 
 R. L. Martin, K. Morokuma, V. G. Zakrzewski, G. A. Voth, 
 P. Salvador, J. J. Dannenberg, S. Dapprich, P. V. Parandekar, 
 N. J. Mayhall, A. D. Daniels, O. Farkas, J. B. Foresman, 
 J. V. Ortiz, J. Cioslowski, and D. J. Fox, 
 Gaussian, Inc., Wallingford CT, 2014.
 
 *******************************************
 Gaussian DV:  ES64L-GDVRevI.03+  2-May-2015
                 20-Dec-2016 
 *******************************************
 %chk=h2-3Az.chk
 %subst l912 /home2/plestran/devel/guga
 %mem=12GB
 %nproc=8
 Will use up to    8 processors via shared memory.
 ----------------------------------------------------------------------
 #p nonstd 1/38=1/1; 2/12=2,15=1,17=6,18=5,40=1/2; 3/5=16,6=1,7=10,25=2
 0,30=1/1,2,3,20; 4//1; 5/5=2,38=5/2; 8/6=3,9=120000,10=1/1,4; 9/1=1638
 4,5=1,7=46,14=1,15=10000,16=10000,17=2,33=0/12; 99/5=1,9=1/99;
 ----------------------------------------------------------------------
 1/38=1/1;
 2/12=2,15=1,17=6,18=5,40=1/2;
 3/5=16,6=1,7=10,25=20,30=1/1,2,3,20;
 4//1;
 5/5=2,38=5/2;
 8/6=3,9=120000,10=1/1,4;
 9/1=16384,5=1,7=46,14=1,15=10000,16=10000,17=2/12;
 99/5=1,9=1/99;
 Leave Link    1 at Tue Dec 20 08:06:06 2016, MaxMem=  1610612736 cpu:               0.2 elap:               0.0
 (Enter /home1/gaussian/gdv/I03P/gdv/l101.exe)
 ----------------------------------------------------------------------
 H2 TD-ROCIS polarizibility using 632.8 nm light (1.9593 eV) w/ 0.001 a
 .u. intensity (3.51E13 W/cm2) for Keldysh=1.927 Time Step = 0.1 au (0.
 0024 fs) for 1000 steps (~24 fs) Linear ramp for 1 cycle and then cons
 tant for rest of sim
 ----------------------------------------------------------------------
 Symbolic Z-matrix:
 Charge =  0 Multiplicity = 1
 H                     0.        0.        0.75 
 H                     0.        0.       -0.75 
 
 ITRead=  0  0
 MicOpt= -1 -1
 NAtoms=      2 NQM=        2 NQMF=       0 NMMI=      0 NMMIF=      0
                NMic=       0 NMicF=      0.
                    Isotopes and Nuclear Properties:
 (Nuclear quadrupole moments (NQMom) in fm**2, nuclear magnetic moments (NMagM)
  in nuclear magnetons)

  Atom         1           2
 IAtWgt=           1           1
 AtmWgt=   1.0078250   1.0078250
 NucSpn=           1           1
 AtZEff=   0.0000000   0.0000000
 NQMom=    0.0000000   0.0000000
 NMagM=    2.7928460   2.7928460
 AtZNuc=   1.0000000   1.0000000
 Leave Link  101 at Tue Dec 20 08:06:06 2016, MaxMem=  1610612736 cpu:               0.7 elap:               0.1
 (Enter /home1/gaussian/gdv/I03P/gdv/l202.exe)
                          Input orientation:                          
 ---------------------------------------------------------------------
 Center     Atomic      Atomic             Coordinates (Angstroms)
 Number     Number       Type             X           Y           Z
 ---------------------------------------------------------------------
      1          1           0        0.000000    0.000000    0.750000
      2          1           0        0.000000    0.000000   -0.750000
 ---------------------------------------------------------------------
 Symmetry turned off by external request.
 Stoichiometry    H2
 Framework group  D*H[C*(H.H)]
 Deg. of freedom     1
 Full point group                 D*H     NOp   8
 Rotational constants (GHZ):      0.0000000    445.7378706    445.7378706
 Leave Link  202 at Tue Dec 20 08:06:06 2016, MaxMem=  1610612736 cpu:               0.1 elap:               0.0
 (Enter /home1/gaussian/gdv/I03P/gdv/l301.exe)
 Standard basis: Aug-CC-pVTZ (5D, 7F)
 Ernie: Thresh=  0.10000D-02 Tol=  0.10000D-05 Strict=F.
    46 basis functions,    54 primitive gaussians,    50 cartesian basis functions
     1 alpha electrons        1 beta electrons
       nuclear repulsion energy         0.3527848073 Hartrees.
 IExCor=    0 DFT=F Ex=HF Corr=None ExCW=0 ScaHFX=  1.000000
 ScaDFX=  1.000000  1.000000  1.000000  1.000000 ScalE2=  1.000000  1.000000
 IRadAn=      0 IRanWt=     -1 IRanGd=            0 ICorTp=0 IEmpDi=  4
 NAtoms=    2 NActive=    2 NUniq=    2 SFac= 1.00D+00 NAtFMM=   60 NAOKFM=F Big=F
 Integral buffers will be    131072 words long.
 Regular integral format.
 Two-electron integral symmetry is turned off.
 Leave Link  301 at Tue Dec 20 08:06:06 2016, MaxMem=  1610612736 cpu:               0.4 elap:               0.1
 (Enter /home1/gaussian/gdv/I03P/gdv/l302.exe)
 NPDir=0 NMtPBC=     1 NCelOv=     1 NCel=       1 NClECP=     1 NCelD=      1
         NCelK=      1 NCelE2=     1 NClLst=     1 CellRange=     0.0.
 One-electron integrals computed using PRISM.
 One-electron integral symmetry used in STVInt
 NBasis=    46 RedAO= T EigKep=  1.54D-03  NBF=    46
 NBsUse=    46 1.00D-06 EigRej= -1.00D+00 NBFU=    46
 Leave Link  302 at Tue Dec 20 08:06:06 2016, MaxMem=  1610612736 cpu:               1.0 elap:               0.1
 (Enter /home1/gaussian/gdv/I03P/gdv/l303.exe)
 DipDrv:  MaxL=1.
 Leave Link  303 at Tue Dec 20 08:06:06 2016, MaxMem=  1610612736 cpu:               0.2 elap:               0.0
 (Enter /home1/gaussian/gdv/I03P/gdv/l320.exe)
 Enter DskPsm, NBasis=  46 NBas6D=  50 NShell=  18 IDoSP=4.
 Out2e will use a cutoff of  1.00D-10
 FoFCou: FMM=F IPFlag=           0 FMFlag=           0 FMFlg1=           0
         NFxFlg=           0 DoJE=F BraDBF=F KetDBF=F FulRan=T
         wScrn=  0.000000 ICntrl=       600 IOpCl=  9 I1Cent=           0 NGrid=           0
         NMat0=    0 NMatS0=      0 NMatT0=    0 NMatD0=    0 NMtDS0=    0 NMtDT0=    0
 Symmetry not used in FoFCou.
       129929 integrals produced for a total of       129929.
 Leave Link  320 at Tue Dec 20 08:06:06 2016, MaxMem=  1610612736 cpu:               0.8 elap:               0.1
 (Enter /home1/gaussian/gdv/I03P/gdv/l401.exe)
 ExpMin= 2.53D-02 ExpMax= 3.39D+01 ExpMxC= 3.39D+01 IAcc=3 IRadAn=         5 AccDes= 0.00D+00
 Harris functional with IExCor=  205 and IRadAn=       5 diagonalized for initial guess.
 HarFok:  IExCor=  205 AccDes= 0.00D+00 IRadAn=         5 IDoV= 1 UseB2=F ITyADJ=14
 ICtDFT=  3500011 ScaDFX=  1.000000  1.000000  1.000000  1.000000
 FoFCou: FMM=F IPFlag=           0 FMFlag=      100000 FMFlg1=           0
         NFxFlg=           0 DoJE=T BraDBF=F KetDBF=T FulRan=T
         wScrn=  0.000000 ICntrl=       500 IOpCl=  0 I1Cent=   200000004 NGrid=           0
         NMat0=    1 NMatS0=      1 NMatT0=    0 NMatD0=    1 NMtDS0=    0 NMtDT0=    0
 Symmetry not used in FoFCou.
 Harris En= -1.07292250501878    
 JPrj=0 DoOrth=F DoCkMO=F.
 Leave Link  401 at Tue Dec 20 08:06:06 2016, MaxMem=  1610612736 cpu:               1.1 elap:               0.1
 (Enter /home1/gaussian/gdv/I03P/gdv/l502.exe)
 Keep R1 ints in memory in canonical form, NReq=2233588.
 FoFCou: FMM=F IPFlag=           0 FMFlag=           0 FMFlg1=           0
         NFxFlg=           0 DoJE=F BraDBF=F KetDBF=F FulRan=T
         wScrn=  0.000000 ICntrl=       600 IOpCl=  0 I1Cent=           0 NGrid=           0
         NMat0=    1 NMatS0=   1081 NMatT0=    0 NMatD0=    1 NMtDS0=    0 NMtDT0=    0
 Symmetry not used in FoFCou.
 Two-electron integral symmetry not used.
 Closed shell SCF:
 Using DIIS extrapolation, IDIIS=  1040.
 NGot=  1610612736 LenX=  1610022043 LenY=  1610019102
 Requested convergence on RMS density matrix=1.00D-08 within 128 cycles.
 Requested convergence on MAX density matrix=1.00D-06.
 Requested convergence on             energy=1.00D-06.
 No special actions if energy rises.

 Cycle   1  Pass 1  IDiag  1:
 E= -1.00325112513280    
 DIIS: error= 9.81D-03 at cycle   1 NSaved=   1.
 NSaved= 1 IEnMin= 1 EnMin= -1.00325112513280     IErMin= 1 ErrMin= 9.81D-03
 ErrMax= 9.81D-03  0.00D+00 EMaxC= 1.00D-01 BMatC= 1.01D-03 BMatP= 1.01D-03
 IDIUse=3 WtCom= 9.02D-01 WtEn= 9.81D-02
 Coeff-Com:  0.100D+01
 Coeff-En:   0.100D+01
 Coeff:      0.100D+01
 Gap=     0.477 Goal=   None    Shift=    0.000
 GapD=    0.477 DampG=2.000 DampE=1.000 DampFc=2.0000 IDamp=-1.
 RMSDP=4.67D-04 MaxDP=5.34D-03              OVMax= 2.07D-02

 Cycle   2  Pass 1  IDiag  1:
 E= -1.00458877810640     Delta-E=       -0.001337652974 Rises=F Damp=F
 DIIS: error= 1.50D-03 at cycle   2 NSaved=   2.
 NSaved= 2 IEnMin= 2 EnMin= -1.00458877810640     IErMin= 2 ErrMin= 1.50D-03
 ErrMax= 1.50D-03  0.00D+00 EMaxC= 1.00D-01 BMatC= 2.86D-05 BMatP= 1.01D-03
 IDIUse=3 WtCom= 9.85D-01 WtEn= 1.50D-02
 Coeff-Com: -0.177D+00 0.118D+01
 Coeff-En:   0.000D+00 0.100D+01
 Coeff:     -0.175D+00 0.117D+01
 Gap=     0.454 Goal=   None    Shift=    0.000
 RMSDP=1.49D-04 MaxDP=2.28D-03 DE=-1.34D-03 OVMax= 5.69D-03

 Cycle   3  Pass 1  IDiag  1:
 E= -1.00465017983750     Delta-E=       -0.000061401731 Rises=F Damp=F
 DIIS: error= 2.11D-04 at cycle   3 NSaved=   3.
 NSaved= 3 IEnMin= 3 EnMin= -1.00465017983750     IErMin= 3 ErrMin= 2.11D-04
 ErrMax= 2.11D-04  0.00D+00 EMaxC= 1.00D-01 BMatC= 3.67D-07 BMatP= 2.86D-05
 IDIUse=3 WtCom= 9.98D-01 WtEn= 2.11D-03
 Coeff-Com:  0.476D-01-0.353D+00 0.131D+01
 Coeff-En:   0.000D+00 0.000D+00 0.100D+01
 Coeff:      0.475D-01-0.352D+00 0.130D+01
 Gap=     0.454 Goal=   None    Shift=    0.000
 RMSDP=2.70D-05 MaxDP=4.05D-04 DE=-6.14D-05 OVMax= 9.50D-04

 Cycle   4  Pass 1  IDiag  1:
 E= -1.00465132668484     Delta-E=       -0.000001146847 Rises=F Damp=F
 DIIS: error= 1.03D-05 at cycle   4 NSaved=   4.
 NSaved= 4 IEnMin= 4 EnMin= -1.00465132668484     IErMin= 4 ErrMin= 1.03D-05
 ErrMax= 1.03D-05  0.00D+00 EMaxC= 1.00D-01 BMatC= 1.47D-09 BMatP= 3.67D-07
 IDIUse=1 WtCom= 1.00D+00 WtEn= 0.00D+00
 Coeff-Com: -0.128D-01 0.961D-01-0.381D+00 0.130D+01
 Coeff:     -0.128D-01 0.961D-01-0.381D+00 0.130D+01
 Gap=     0.454 Goal=   None    Shift=    0.000
 RMSDP=2.49D-06 MaxDP=2.87D-05 DE=-1.15D-06 OVMax= 7.14D-05

 Cycle   5  Pass 1  IDiag  1:
 E= -1.00465133202184     Delta-E=       -0.000000005337 Rises=F Damp=F
 DIIS: error= 2.46D-07 at cycle   5 NSaved=   5.
 NSaved= 5 IEnMin= 5 EnMin= -1.00465133202184     IErMin= 5 ErrMin= 2.46D-07
 ErrMax= 2.46D-07  0.00D+00 EMaxC= 1.00D-01 BMatC= 8.54D-13 BMatP= 1.47D-09
 IDIUse=1 WtCom= 1.00D+00 WtEn= 0.00D+00
 Coeff-Com:  0.106D-02-0.799D-02 0.321D-01-0.118D+00 0.109D+01
 Coeff:      0.106D-02-0.799D-02 0.321D-01-0.118D+00 0.109D+01
 Gap=     0.454 Goal=   None    Shift=    0.000
 RMSDP=4.49D-08 MaxDP=6.30D-07 DE=-5.34D-09 OVMax= 1.17D-06

 Cycle   6  Pass 1  IDiag  1:
 E= -1.00465133202399     Delta-E=       -0.000000000002 Rises=F Damp=F
 DIIS: error= 3.27D-08 at cycle   6 NSaved=   6.
 NSaved= 6 IEnMin= 6 EnMin= -1.00465133202399     IErMin= 6 ErrMin= 3.27D-08
 ErrMax= 3.27D-08  0.00D+00 EMaxC= 1.00D-01 BMatC= 9.05D-15 BMatP= 8.54D-13
 IDIUse=1 WtCom= 1.00D+00 WtEn= 0.00D+00
 Coeff-Com:  0.196D-05-0.551D-05-0.329D-04 0.107D-02-0.128D+00 0.113D+01
 Coeff:      0.196D-05-0.551D-05-0.329D-04 0.107D-02-0.128D+00 0.113D+01
 Gap=     0.454 Goal=   None    Shift=    0.000
 RMSDP=3.49D-09 MaxDP=4.69D-08 DE=-2.15D-12 OVMax= 1.30D-07

 SCF Done:  E(RHF) =  -1.00465133202     A.U. after    6 cycles
            NFock=  6  Conv=0.35D-08     -V/T= 2.3788
 KE= 7.286416811800D-01 PE=-2.562113082407D+00 EE= 4.760352619234D-01
 Leave Link  502 at Tue Dec 20 08:06:06 2016, MaxMem=  1610612736 cpu:               0.9 elap:               0.1
 (Enter /home1/gaussian/gdv/I03P/gdv/l801.exe)
 Windowed orbitals will be sorted by symmetry type.
 Range of M.O.s used for correlation:     1    46
 NBasis=    46 NAE=     1 NBE=     1 NFC=     0 NFV=     0
 NROrb=     46 NOA=     1 NOB=     1 NVA=    45 NVB=    45
 Leave Link  801 at Tue Dec 20 08:06:06 2016, MaxMem=  1610612736 cpu:               0.1 elap:               0.0
 (Enter /home1/gaussian/gdv/I03P/gdv/l804.exe)
 Closed-shell transformation, MDV=  1610612736 ITran=3 ISComp=1.
 Unit  1 TFree=         71264 TCopy=        197523.
 Semi-Direct transformation.
 ModeAB=           2 MOrb=             1 LenV=    1610409565
 LASXX=         2025 LTotXX=        2025 LenRXX=        2025
 LTotAB=        3106 MaxLAS=       58650 LenRXY=       58650
 NonZer=       62238 LenScr=      785920 LnRSAI=           0
 LnScr1=           0 LExtra=           0 Total=       846595
 MaxDsk=          -1 SrtSym=           F ITran=            3
 DoSDTr:  NPSUse=  8
 JobTyp=0 Pass  1:  I=   1 to   1.
 (rs|ai) integrals will be sorted in core.
 Complete sort for first half transformation.
 First half transformation complete.
 Complete sort for second half transformation.
 Second half transformation complete.
 Spin components of T(2) and E(2):
     alpha-alpha T2 =       0.0000000000D+00 E2=      0.0000000000D+00
     alpha-beta  T2 =       0.2785634283D-01 E2=     -0.4059185837D-01
     beta-beta   T2 =       0.0000000000D+00 E2=      0.0000000000D+00
 ANorm=    0.1013832502D+01
 E2 =    -0.4059185837D-01 EUMP2 =    -0.10452431903943D+01
 Leave Link  804 at Tue Dec 20 08:06:07 2016, MaxMem=  1610612736 cpu:               0.6 elap:               0.1
 (Enter /home2/plestran/devel/guga/l912.exe)
 Top of link  912.    Tue Dec 20 08:06:07 2016        0.00 cpu,        0.00 elapsed
 *************************************************************************************************************
 GUGA-based CI
 *************************************************************************************************************
 Number of Roots =  46
 Level of Excitation        =    1
 Spin Multiplicity =  1
 Total number of electrons  =    2
 Total Number of CSFs =       46
 -------------------------------------------------------------------------------------------------------------
 Top of DavDag.       Tue Dec 20 08:06:08 2016       13.23 cpu,        1.66 elapsed
 Davidson Disk Diagonalization is being used:
 MVecIn=     46 MSekIn=   46 NVConv=   46 NVConT=    0 MConv=   46 WhenSc=  2 IFact=    3 FinIt=T
 NRoot=    46 Conv= 1.00D-08 ConvT= 1.00D-08 MaxItI=         128 Dim=          46 Max sub=   460
 Iteration     1 internal iteration     1 dimension is    46
 Eigenvalues at current iteration:
 Root      1 :    -1.357436139304011
 Root      2 :    -1.064242262297570
 Root      3 :    -1.010595913634159
 Root      4 :    -0.961115969058052
 Root      5 :    -0.959166445504495
 Root      6 :    -0.959166445504493
 Root      7 :    -0.855300280799913
 Root      8 :    -0.850485743902067
 Root      9 :    -0.850485743902067
 Root     10 :    -0.765288458135838
 Root     11 :    -0.668861356408397
 Root     12 :    -0.563414775677671
 Root     13 :    -0.472810962362503
 Root     14 :    -0.472810962362501
 Root     15 :    -0.374210324694166
 Root     16 :    -0.374210324694163
 Root     17 :    -0.277277808307903
 Root     18 :    -0.260077285485204
 Root     19 :    -0.260077285485200
 Root     20 :    -0.245316959749899
 Root     21 :    -0.245316959749898
 Root     22 :    -0.206656531962517
 Root     23 :    -0.206656531962512
 Root     24 :    -0.203216453290596
 Root     25 :     0.031978128355824
 Root     26 :     0.144713930305764
 Root     27 :     0.144713930305770
 Root     28 :     0.516728295331079
 Root     29 :     1.304392302364952
 Root     30 :     1.713168305926239
 Root     31 :     2.226594924175766
 Root     32 :     2.335369750087488
 Root     33 :     2.335369750087493
 Root     34 :     2.471922500911905
 Root     35 :     2.471922500911919
 Root     36 :     2.553714632368202
 Root     37 :     2.553714632368212
 Root     38 :     2.712070034247204
 Root     39 :     2.712070034247230
 Root     40 :     2.802738942620175
 Root     41 :     2.802738942620195
 Root     42 :     2.834023952744664
 Root     43 :     2.834023952744679
 Root     44 :     3.026727912950339
 Root     45 :     3.077623590203119
 Root     46 :     3.813242317598709
 DEMax= 0.00D+00
 State    1 2nd order lowering   -0.752223370184E-30 norm 1.62D-15
 State    2 2nd order lowering   -0.102364152895E-27 norm 1.68D-13
 State    3 2nd order lowering   -0.108648200284E-27 norm 2.65D-13
 State    4 2nd order lowering   -0.140130351504E-26 norm 6.74D-12
 State    5 2nd order lowering   -0.437820720492E-27 norm 8.75D-13
 State    6 2nd order lowering   -0.330934427795E-26 norm 2.41D-12
 State    7 2nd order lowering   -0.611806679582E-29 norm 3.47D-14
 State    8 2nd order lowering   -0.112267513733E-28 norm 1.46D-13
 State    9 2nd order lowering   -0.618417489472E-29 norm 6.19D-14
 State   10 2nd order lowering   -0.205929086234E-28 norm 2.12D-13
 State   11 2nd order lowering    0.310711522324E-29 norm 3.15D-14
 State   12 2nd order lowering    0.174907738233E-26 norm 2.62D-12
 State   13 2nd order lowering   -0.642756642451E-26 norm 6.10D-12
 State   14 2nd order lowering   -0.490150470172E-26 norm 5.32D-12
 State   15 2nd order lowering    0.134565256534E-26 norm 3.25D-12
 State   16 2nd order lowering    0.259345530990E-27 norm 1.43D-12
 State   17 2nd order lowering   -0.431674751820E-28 norm 1.66D-13
 State   18 2nd order lowering   -0.128316961070E-27 norm 6.36D-13
 State   19 2nd order lowering   -0.660160845364E-28 norm 4.83D-13
 State   20 2nd order lowering   -0.273141006021E-26 norm 1.67D-12
 State   21 2nd order lowering   -0.258205502135E-26 norm 1.62D-12
 State   22 2nd order lowering   -0.118661660112E-25 norm 8.10D-12
 State   23 2nd order lowering   -0.169118979493E-25 norm 9.67D-12
 State   24 2nd order lowering    0.681342500124E-29 norm 8.42D-14
 State   25 2nd order lowering    0.518193682789E-29 norm 7.09D-14
 State   26 2nd order lowering    0.108510286016E-27 norm 2.36D-13
 State   27 2nd order lowering    0.129418507555E-27 norm 2.57D-13
 State   28 2nd order lowering    0.807876859411E-27 norm 8.80D-13
 State   29 2nd order lowering    0.177666834834E-27 norm 6.00D-13
 State   30 2nd order lowering    0.554640625983E-28 norm 3.35D-13
 State   31 2nd order lowering    0.292438501982E-26 norm 2.21D-12
 State   32 2nd order lowering    0.602619796991E-25 norm 1.93D-11
 State   33 2nd order lowering    0.306218701876E-25 norm 1.37D-11
 State   34 2nd order lowering    0.250352492673E-25 norm 1.20D-11
 State   35 2nd order lowering    0.449971544705E-25 norm 1.61D-11
 State   36 2nd order lowering    0.146619690621E-25 norm 7.23D-12
 State   37 2nd order lowering    0.168713725930E-25 norm 7.75D-12
 State   38 2nd order lowering    0.131146514680E-26 norm 1.69D-12
 State   39 2nd order lowering    0.766971301260E-26 norm 4.07D-12
 State   40 2nd order lowering   -0.820974375737E-28 norm 1.16D-13
 State   41 2nd order lowering   -0.328144390209E-29 norm 4.63D-14
 State   42 2nd order lowering    0.357634281815E-28 norm 6.89D-14
 State   43 2nd order lowering    0.396734967806E-28 norm 7.14D-14
 State   44 2nd order lowering    0.285438234038E-25 norm 8.04D-12
 State   45 2nd order lowering    0.128612698505E-27 norm 4.70D-13
 State   46 2nd order lowering    0.112145979691E-26 norm 1.26D-12
 Convergence achieved for final wavefunctions.
 Bot of DavDag.       Tue Dec 20 08:06:16 2016       62.29 cpu,        7.79 elapsed
 -------------------------------------------------------------------------------------------------------------
 E(CI,Root=   0) =       -1.004651332024    
 E(CI,Root=   1) =      -0.7114574550176    
 E(CI,Root=   2) =      -0.6578111063542    
 E(CI,Root=   3) =      -0.6083311617781    
 E(CI,Root=   4) =      -0.6063816382245    
 E(CI,Root=   5) =      -0.6063816382245    
 E(CI,Root=   6) =      -0.5025154735199    
 E(CI,Root=   7) =      -0.4977009366221    
 E(CI,Root=   8) =      -0.4977009366221    
 E(CI,Root=   9) =      -0.4125036508558    
 E(CI,Root=  10) =      -0.3160765491284    
 E(CI,Root=  11) =      -0.2106299683977    
 E(CI,Root=  12) =      -0.1200261550825    
 E(CI,Root=  13) =      -0.1200261550825    
 E(CI,Root=  14) =      -0.2142551741417E-01
 E(CI,Root=  15) =      -0.2142551741416E-01
 E(CI,Root=  16) =       0.7550699897210E-01
 E(CI,Root=  17) =       0.9270752179480E-01
 E(CI,Root=  18) =       0.9270752179480E-01
 E(CI,Root=  19) =       0.1074678475301    
 E(CI,Root=  20) =       0.1074678475301    
 E(CI,Root=  21) =       0.1461282753175    
 E(CI,Root=  22) =       0.1461282753175    
 E(CI,Root=  23) =       0.1495683539894    
 E(CI,Root=  24) =       0.3847629356358    
 E(CI,Root=  25) =       0.4974987375858    
 E(CI,Root=  26) =       0.4974987375858    
 E(CI,Root=  27) =       0.8695131026111    
 E(CI,Root=  28) =        1.657177109645    
 E(CI,Root=  29) =        2.065953113206    
 E(CI,Root=  30) =        2.579379731456    
 E(CI,Root=  31) =        2.688154557367    
 E(CI,Root=  32) =        2.688154557367    
 E(CI,Root=  33) =        2.824707308192    
 E(CI,Root=  34) =        2.824707308192    
 E(CI,Root=  35) =        2.906499439648    
 E(CI,Root=  36) =        2.906499439648    
 E(CI,Root=  37) =        3.064854841527    
 E(CI,Root=  38) =        3.064854841527    
 E(CI,Root=  39) =        3.155523749900    
 E(CI,Root=  40) =        3.155523749900    
 E(CI,Root=  41) =        3.186808760025    
 E(CI,Root=  42) =        3.186808760025    
 E(CI,Root=  43) =        3.379512720230    
 E(CI,Root=  44) =        3.430408397483    
 E(CI,Root=  45) =        4.166027124879    
 *************************************************************************************************************
 GUGA-based TD-CI
 *************************************************************************************************************
 Step Size =      0.00242 fs       0.10000 a.u.

 External field Parameters:
                             Ex =     0.00000 a.u.
                             Ey =     0.00000 a.u.
                             Ez =    -0.00300 a.u.
                      Frequency =     1.95930 eV   Wavelength =   632.79841 nm
                          Phase =     0.00000 rad
                          t(on) =     0.00000 fs,
                         t(off) =  1000.00000 fs

 Split Operator Propagation
 Forming Transition Density
 NP =                    8
 NChunk =                  136
 CI dipole matrix                   1
                1             2             3             4             5 
      1  0.000000D+00
      2  0.000000D+00  0.000000D+00
      3  0.000000D+00  0.000000D+00  0.000000D+00
      4  0.000000D+00  0.000000D+00  0.000000D+00  0.000000D+00
      5 -0.447095D+00  0.000000D+00 -0.440096D+00  0.000000D+00  0.000000D+00
      6 -0.137943D+01  0.000000D+00 -0.135784D+01  0.000000D+00  0.000000D+00
      7  0.000000D+00  0.000000D+00  0.000000D+00  0.000000D+00  0.106066D+00
      8  0.000000D+00 -0.144863D+01  0.000000D+00 -0.468160D+00  0.000000D+00
      9  0.000000D+00 -0.531294D+00  0.000000D+00 -0.171700D+00  0.000000D+00
     10  0.000000D+00  0.000000D+00  0.000000D+00  0.000000D+00  0.000000D+00
     11  0.000000D+00  0.000000D+00  0.000000D+00  0.000000D+00 -0.368983D+00
     12  0.000000D+00  0.000000D+00  0.000000D+00  0.000000D+00  0.000000D+00
     13  0.000000D+00  0.000000D+00  0.000000D+00  0.000000D+00 -0.558205D-01
     14  0.000000D+00  0.000000D+00  0.000000D+00  0.000000D+00 -0.116826D+01
     15 -0.120301D+00  0.000000D+00  0.262462D+00  0.000000D+00  0.000000D+00
     16  0.387196D+00  0.000000D+00 -0.844747D+00  0.000000D+00  0.000000D+00
     17  0.000000D+00  0.000000D+00  0.000000D+00  0.000000D+00  0.152372D-01
     18  0.000000D+00  0.000000D+00  0.000000D+00  0.000000D+00  0.000000D+00
     19  0.000000D+00  0.000000D+00  0.000000D+00  0.000000D+00  0.000000D+00
     20  0.000000D+00 -0.247612D-01  0.000000D+00 -0.288123D+00  0.000000D+00
     21  0.000000D+00 -0.825575D-01  0.000000D+00 -0.960645D+00  0.000000D+00
     22 -0.156798D+00  0.000000D+00  0.343742D+00  0.000000D+00  0.000000D+00
     23 -0.266224D+00  0.000000D+00  0.583632D+00  0.000000D+00  0.000000D+00
     24  0.000000D+00  0.000000D+00  0.000000D+00  0.000000D+00  0.000000D+00
     25  0.000000D+00  0.000000D+00  0.000000D+00  0.000000D+00 -0.149136D-01
     26  0.000000D+00 -0.824405D-02  0.000000D+00 -0.280645D-02  0.000000D+00
     27  0.000000D+00  0.697295D-01  0.000000D+00  0.237374D-01  0.000000D+00
     28  0.000000D+00  0.000000D+00  0.000000D+00  0.000000D+00  0.000000D+00
     29  0.000000D+00  0.000000D+00  0.000000D+00  0.000000D+00  0.803118D-01
     30  0.000000D+00  0.000000D+00  0.000000D+00  0.000000D+00  0.000000D+00
     31  0.000000D+00  0.000000D+00  0.000000D+00  0.000000D+00 -0.259499D-01
     32  0.493960D-03  0.000000D+00  0.176049D-01  0.000000D+00  0.000000D+00
     33  0.262383D-02  0.000000D+00  0.935143D-01  0.000000D+00  0.000000D+00
     34  0.000000D+00  0.000000D+00  0.000000D+00  0.000000D+00 -0.596067D-01
     35  0.000000D+00  0.000000D+00  0.000000D+00  0.000000D+00  0.237094D+00
     36  0.000000D+00  0.000000D+00  0.000000D+00  0.000000D+00  0.000000D+00
     37  0.000000D+00  0.000000D+00  0.000000D+00  0.000000D+00  0.000000D+00
     38  0.138599D-01  0.000000D+00  0.684032D-01  0.000000D+00  0.000000D+00
     39 -0.646013D-01  0.000000D+00 -0.318828D+00  0.000000D+00  0.000000D+00
     40  0.000000D+00 -0.117478D-01  0.000000D+00 -0.907829D-01  0.000000D+00
     41  0.000000D+00 -0.209838D-02  0.000000D+00 -0.162156D-01  0.000000D+00
     42  0.000000D+00 -0.802988D-01  0.000000D+00 -0.142073D+00  0.000000D+00
     43  0.000000D+00  0.659524D-01  0.000000D+00  0.116690D+00  0.000000D+00
     44  0.000000D+00  0.000000D+00  0.000000D+00  0.000000D+00  0.106232D-01
     45  0.000000D+00  0.000000D+00  0.000000D+00  0.000000D+00  0.000000D+00
     46  0.000000D+00  0.000000D+00  0.000000D+00  0.000000D+00  0.000000D+00
                6             7             8             9            10 
      6  0.000000D+00
      7  0.327247D+00  0.000000D+00
      8  0.000000D+00  0.000000D+00  0.000000D+00
      9  0.000000D+00  0.000000D+00  0.000000D+00  0.000000D+00
     10  0.000000D+00  0.000000D+00 -0.854352D-01 -0.313338D-01  0.000000D+00
     11 -0.113843D+01  0.000000D+00  0.000000D+00  0.000000D+00  0.000000D+00
     12  0.000000D+00  0.000000D+00 -0.122439D+01 -0.449052D+00  0.000000D+00
     13  0.116826D+01  0.000000D+00  0.000000D+00  0.000000D+00  0.000000D+00
     14 -0.558205D-01  0.000000D+00  0.000000D+00  0.000000D+00  0.000000D+00
     15  0.000000D+00  0.196375D+00  0.000000D+00  0.000000D+00  0.000000D+00
     16  0.000000D+00 -0.632042D+00  0.000000D+00  0.000000D+00  0.000000D+00
     17  0.470115D-01  0.000000D+00  0.000000D+00  0.000000D+00  0.000000D+00
     18  0.000000D+00  0.000000D+00  0.190418D+00 -0.106486D+01  0.000000D+00
     19  0.000000D+00  0.000000D+00 -0.106486D+01 -0.190418D+00  0.000000D+00
     20  0.000000D+00  0.000000D+00  0.000000D+00  0.000000D+00 -0.578314D-01
     21  0.000000D+00  0.000000D+00  0.000000D+00  0.000000D+00 -0.192819D+00
     22  0.000000D+00 -0.453926D+00  0.000000D+00  0.000000D+00  0.000000D+00
     23  0.000000D+00 -0.770711D+00  0.000000D+00  0.000000D+00  0.000000D+00
     24  0.000000D+00  0.000000D+00  0.349224D+00  0.128080D+00  0.000000D+00
     25 -0.460131D-01  0.000000D+00  0.000000D+00  0.000000D+00  0.000000D+00
     26  0.000000D+00  0.000000D+00  0.000000D+00  0.000000D+00 -0.888229D-01
     27  0.000000D+00  0.000000D+00  0.000000D+00  0.000000D+00  0.751278D+00
     28  0.000000D+00  0.000000D+00 -0.233126D+00 -0.855003D-01  0.000000D+00
     29  0.247788D+00  0.000000D+00  0.000000D+00  0.000000D+00  0.000000D+00
     30  0.000000D+00  0.000000D+00  0.291333D+00  0.106848D+00  0.000000D+00
     31 -0.800637D-01  0.000000D+00  0.000000D+00  0.000000D+00  0.000000D+00
     32  0.000000D+00  0.514687D-01  0.000000D+00  0.000000D+00  0.000000D+00
     33  0.000000D+00  0.273393D+00  0.000000D+00  0.000000D+00  0.000000D+00
     34  0.237094D+00  0.000000D+00  0.000000D+00  0.000000D+00  0.000000D+00
     35  0.596067D-01  0.000000D+00  0.000000D+00  0.000000D+00  0.000000D+00
     36  0.000000D+00  0.000000D+00 -0.115328D+00  0.227775D+00  0.000000D+00
     37  0.000000D+00  0.000000D+00  0.227775D+00  0.115328D+00  0.000000D+00
     38  0.000000D+00 -0.266070D-01  0.000000D+00  0.000000D+00  0.000000D+00
     39  0.000000D+00  0.124016D+00  0.000000D+00  0.000000D+00  0.000000D+00
     40  0.000000D+00  0.000000D+00  0.000000D+00  0.000000D+00 -0.189175D+00
     41  0.000000D+00  0.000000D+00  0.000000D+00  0.000000D+00 -0.337903D-01
     42  0.000000D+00  0.000000D+00  0.000000D+00  0.000000D+00  0.818420D-02
     43  0.000000D+00  0.000000D+00  0.000000D+00  0.000000D+00 -0.672199D-02
     44  0.327760D-01  0.000000D+00  0.000000D+00  0.000000D+00  0.000000D+00
     45  0.000000D+00  0.000000D+00 -0.592276D-01 -0.217221D-01  0.000000D+00
     46  0.000000D+00  0.000000D+00  0.424798D-01  0.155797D-01  0.000000D+00
               11            12            13            14            15 
     11  0.000000D+00
     12  0.000000D+00  0.000000D+00
     13  0.000000D+00  0.000000D+00  0.000000D+00
     14  0.000000D+00  0.000000D+00  0.000000D+00  0.000000D+00
     15  0.174471D-01  0.000000D+00  0.732522D-01  0.939144D-01  0.000000D+00
     16 -0.561544D-01  0.000000D+00 -0.939144D-01  0.732522D-01  0.000000D+00
     17  0.000000D+00  0.000000D+00  0.000000D+00  0.000000D+00 -0.232294D-01
     18  0.000000D+00  0.000000D+00  0.000000D+00  0.000000D+00  0.000000D+00
     19  0.000000D+00  0.000000D+00  0.000000D+00  0.000000D+00  0.000000D+00
     20  0.000000D+00 -0.142262D+00  0.000000D+00  0.000000D+00  0.000000D+00
     21  0.000000D+00 -0.474324D+00  0.000000D+00  0.000000D+00  0.000000D+00
     22  0.224676D+00  0.000000D+00 -0.557799D-01 -0.448630D-01  0.000000D+00
     23  0.381472D+00  0.000000D+00 -0.448630D-01  0.557799D-01  0.000000D+00
     24  0.000000D+00  0.000000D+00  0.000000D+00  0.000000D+00  0.000000D+00
     25  0.000000D+00  0.000000D+00  0.000000D+00  0.000000D+00  0.411329D-01
     26  0.000000D+00  0.133846D-01  0.000000D+00  0.000000D+00  0.000000D+00
     27  0.000000D+00 -0.113209D+00  0.000000D+00  0.000000D+00  0.000000D+00
     28  0.000000D+00  0.000000D+00  0.000000D+00  0.000000D+00  0.000000D+00
     29  0.000000D+00  0.000000D+00  0.000000D+00  0.000000D+00 -0.110783D+00
     30  0.000000D+00  0.000000D+00  0.000000D+00  0.000000D+00  0.000000D+00
     31  0.000000D+00  0.000000D+00  0.000000D+00  0.000000D+00  0.881477D-01
     32 -0.263418D-01  0.000000D+00 -0.117495D-01 -0.664164D-01  0.000000D+00
     33 -0.139923D+00  0.000000D+00  0.664164D-01 -0.117495D-01  0.000000D+00
     34  0.000000D+00  0.000000D+00  0.000000D+00  0.000000D+00 -0.215985D+00
     35  0.000000D+00  0.000000D+00  0.000000D+00  0.000000D+00  0.185578D+00
     36  0.000000D+00  0.000000D+00  0.000000D+00  0.000000D+00  0.000000D+00
     37  0.000000D+00  0.000000D+00  0.000000D+00  0.000000D+00  0.000000D+00
     38 -0.561801D-01  0.000000D+00  0.883856D-01  0.137132D+00  0.000000D+00
     39  0.261856D+00  0.000000D+00 -0.137132D+00  0.883856D-01  0.000000D+00
     40  0.000000D+00 -0.795554D-01  0.000000D+00  0.000000D+00  0.000000D+00
     41  0.000000D+00 -0.142101D-01  0.000000D+00  0.000000D+00  0.000000D+00
     42  0.000000D+00  0.175385D+00  0.000000D+00  0.000000D+00  0.000000D+00
     43  0.000000D+00 -0.144051D+00  0.000000D+00  0.000000D+00  0.000000D+00
     44  0.000000D+00  0.000000D+00  0.000000D+00  0.000000D+00 -0.653812D-01
     45  0.000000D+00  0.000000D+00  0.000000D+00  0.000000D+00  0.000000D+00
     46  0.000000D+00  0.000000D+00  0.000000D+00  0.000000D+00  0.000000D+00
               16            17            18            19            20 
     16  0.000000D+00
     17  0.747648D-01  0.000000D+00
     18  0.000000D+00  0.000000D+00  0.000000D+00
     19  0.000000D+00  0.000000D+00  0.000000D+00  0.000000D+00
     20  0.000000D+00  0.000000D+00  0.142439D+00  0.167152D-01  0.000000D+00
     21  0.000000D+00  0.000000D+00 -0.167152D-01  0.142439D+00  0.000000D+00
     22  0.000000D+00 -0.236284D-01  0.000000D+00  0.000000D+00  0.000000D+00
     23  0.000000D+00 -0.401182D-01  0.000000D+00  0.000000D+00  0.000000D+00
     24  0.000000D+00  0.000000D+00  0.000000D+00  0.000000D+00  0.263427D-01
     25 -0.132388D+00  0.000000D+00  0.000000D+00  0.000000D+00  0.000000D+00
     26  0.000000D+00  0.000000D+00  0.166734D+00 -0.501655D-01  0.000000D+00
     27  0.000000D+00  0.000000D+00  0.501655D-01  0.166734D+00  0.000000D+00
     28  0.000000D+00  0.000000D+00  0.000000D+00  0.000000D+00 -0.142264D+00
     29  0.356559D+00  0.000000D+00  0.000000D+00  0.000000D+00  0.000000D+00
     30  0.000000D+00  0.000000D+00  0.000000D+00  0.000000D+00  0.152301D+00
     31 -0.283708D+00  0.000000D+00  0.000000D+00  0.000000D+00  0.000000D+00
     32  0.000000D+00  0.919221D-01  0.000000D+00  0.000000D+00  0.000000D+00
     33  0.000000D+00  0.488274D+00  0.000000D+00  0.000000D+00  0.000000D+00
     34  0.185578D+00  0.000000D+00  0.000000D+00  0.000000D+00  0.000000D+00
     35  0.215985D+00  0.000000D+00  0.000000D+00  0.000000D+00  0.000000D+00
     36  0.000000D+00  0.000000D+00  0.000000D+00  0.000000D+00  0.306640D+00
     37  0.000000D+00  0.000000D+00  0.000000D+00  0.000000D+00  0.132751D+00
     38  0.000000D+00 -0.161654D-01  0.000000D+00  0.000000D+00  0.000000D+00
     39  0.000000D+00  0.753471D-01  0.000000D+00  0.000000D+00  0.000000D+00
     40  0.000000D+00  0.000000D+00  0.117386D-03 -0.538159D-01  0.000000D+00
     41  0.000000D+00  0.000000D+00 -0.538159D-01 -0.117386D-03  0.000000D+00
     42  0.000000D+00  0.000000D+00  0.187539D+00  0.160741D+00  0.000000D+00
     43  0.000000D+00  0.000000D+00  0.160741D+00 -0.187539D+00  0.000000D+00
     44  0.210433D+00  0.000000D+00  0.000000D+00  0.000000D+00  0.000000D+00
     45  0.000000D+00  0.000000D+00  0.000000D+00  0.000000D+00 -0.353078D-01
     46  0.000000D+00  0.000000D+00  0.000000D+00  0.000000D+00  0.594992D-01
               21            22            23            24            25 
     21  0.000000D+00
     22  0.000000D+00  0.000000D+00
     23  0.000000D+00  0.000000D+00  0.000000D+00
     24  0.878305D-01  0.000000D+00  0.000000D+00  0.000000D+00
     25  0.000000D+00 -0.251681D+00 -0.427323D+00  0.000000D+00  0.000000D+00
     26  0.000000D+00  0.000000D+00  0.000000D+00  0.634549D-01  0.000000D+00
     27  0.000000D+00  0.000000D+00  0.000000D+00 -0.536712D+00  0.000000D+00
     28 -0.474328D+00  0.000000D+00  0.000000D+00  0.000000D+00  0.000000D+00
     29  0.000000D+00 -0.299935D+00 -0.509253D+00  0.000000D+00  0.000000D+00
     30  0.507795D+00  0.000000D+00  0.000000D+00  0.000000D+00  0.000000D+00
     31  0.000000D+00  0.449160D-01  0.762619D-01  0.000000D+00  0.000000D+00
     32  0.000000D+00  0.000000D+00  0.000000D+00  0.000000D+00 -0.208529D-01
     33  0.000000D+00  0.000000D+00  0.000000D+00  0.000000D+00 -0.110767D+00
     34  0.000000D+00 -0.382935D+00 -0.198773D+00  0.000000D+00  0.000000D+00
     35  0.000000D+00  0.198773D+00 -0.382935D+00  0.000000D+00  0.000000D+00
     36 -0.132751D+00  0.000000D+00  0.000000D+00  0.000000D+00  0.000000D+00
     37  0.306640D+00  0.000000D+00  0.000000D+00  0.000000D+00  0.000000D+00
     38  0.000000D+00  0.000000D+00  0.000000D+00  0.000000D+00 -0.212375D-01
     39  0.000000D+00  0.000000D+00  0.000000D+00  0.000000D+00  0.989884D-01
     40  0.000000D+00  0.000000D+00  0.000000D+00 -0.385959D-01  0.000000D+00
     41  0.000000D+00  0.000000D+00  0.000000D+00 -0.689396D-02  0.000000D+00
     42  0.000000D+00  0.000000D+00  0.000000D+00 -0.207989D+00  0.000000D+00
     43  0.000000D+00  0.000000D+00  0.000000D+00  0.170829D+00  0.000000D+00
     44  0.000000D+00  0.909131D-01  0.154359D+00  0.000000D+00  0.000000D+00
     45 -0.117722D+00  0.000000D+00  0.000000D+00  0.000000D+00  0.000000D+00
     46  0.198379D+00  0.000000D+00  0.000000D+00  0.000000D+00  0.000000D+00
               26            27            28            29            30 
     26  0.000000D+00
     27  0.000000D+00  0.000000D+00
     28  0.730188D-02 -0.617605D-01  0.000000D+00
     29  0.000000D+00  0.000000D+00  0.000000D+00  0.000000D+00
     30 -0.392479D-01  0.331965D+00  0.000000D+00  0.000000D+00  0.000000D+00
     31  0.000000D+00  0.000000D+00  0.000000D+00  0.000000D+00  0.000000D+00
     32  0.000000D+00  0.000000D+00  0.000000D+00  0.265021D-02  0.000000D+00
     33  0.000000D+00  0.000000D+00  0.000000D+00  0.140774D-01  0.000000D+00
     34  0.000000D+00  0.000000D+00  0.000000D+00  0.000000D+00  0.000000D+00
     35  0.000000D+00  0.000000D+00  0.000000D+00  0.000000D+00  0.000000D+00
     36  0.343843D+00  0.176091D-03  0.000000D+00  0.000000D+00  0.000000D+00
     37 -0.176091D-03  0.343843D+00  0.000000D+00  0.000000D+00  0.000000D+00
     38  0.000000D+00  0.000000D+00  0.000000D+00 -0.877160D-01  0.000000D+00
     39  0.000000D+00  0.000000D+00  0.000000D+00  0.408846D+00  0.000000D+00
     40  0.000000D+00  0.000000D+00  0.493307D+00  0.000000D+00  0.133102D+00
     41  0.000000D+00  0.000000D+00  0.881140D-01  0.000000D+00  0.237746D-01
     42  0.000000D+00  0.000000D+00 -0.154715D+00  0.000000D+00  0.258891D+00
     43  0.000000D+00  0.000000D+00  0.127073D+00  0.000000D+00 -0.212637D+00
     44  0.000000D+00  0.000000D+00  0.000000D+00  0.000000D+00  0.000000D+00
     45 -0.236414D-01  0.199963D+00  0.000000D+00  0.000000D+00  0.000000D+00
     46  0.262637D-01 -0.222143D+00  0.000000D+00  0.000000D+00  0.000000D+00
               31            32            33            34            35 
     31  0.000000D+00
     32  0.640195D-02  0.000000D+00
     33  0.340060D-01  0.000000D+00  0.000000D+00
     34  0.000000D+00  0.318042D-02 -0.811187D-02  0.000000D+00
     35  0.000000D+00 -0.811187D-02 -0.318042D-02  0.000000D+00  0.000000D+00
     36  0.000000D+00  0.000000D+00  0.000000D+00  0.000000D+00  0.000000D+00
     37  0.000000D+00  0.000000D+00  0.000000D+00  0.000000D+00  0.000000D+00
     38 -0.259981D-01  0.000000D+00  0.000000D+00  0.125894D+00 -0.129553D+00
     39  0.121178D+00  0.000000D+00  0.000000D+00 -0.129553D+00 -0.125894D+00
     40  0.000000D+00  0.000000D+00  0.000000D+00  0.000000D+00  0.000000D+00
     41  0.000000D+00  0.000000D+00  0.000000D+00  0.000000D+00  0.000000D+00
     42  0.000000D+00  0.000000D+00  0.000000D+00  0.000000D+00  0.000000D+00
     43  0.000000D+00  0.000000D+00  0.000000D+00  0.000000D+00  0.000000D+00
     44  0.000000D+00 -0.278500D-01 -0.147934D+00  0.000000D+00  0.000000D+00
     45  0.000000D+00  0.000000D+00  0.000000D+00  0.000000D+00  0.000000D+00
     46  0.000000D+00  0.000000D+00  0.000000D+00  0.000000D+00  0.000000D+00
               36            37            38            39            40 
     36  0.000000D+00
     37  0.000000D+00  0.000000D+00
     38  0.000000D+00  0.000000D+00  0.000000D+00
     39  0.000000D+00  0.000000D+00  0.000000D+00  0.000000D+00
     40 -0.190195D-01  0.628343D-01  0.000000D+00  0.000000D+00  0.000000D+00
     41  0.628343D-01  0.190195D-01  0.000000D+00  0.000000D+00  0.000000D+00
     42 -0.855090D-01 -0.133275D+00  0.000000D+00  0.000000D+00  0.000000D+00
     43 -0.133275D+00  0.855090D-01  0.000000D+00  0.000000D+00  0.000000D+00
     44  0.000000D+00  0.000000D+00 -0.102285D-01  0.476753D-01  0.000000D+00
     45  0.000000D+00  0.000000D+00  0.000000D+00  0.000000D+00 -0.745583D-01
     46  0.000000D+00  0.000000D+00  0.000000D+00  0.000000D+00 -0.190055D-01
               41            42            43            44            45 
     41  0.000000D+00
     42  0.000000D+00  0.000000D+00
     43  0.000000D+00  0.000000D+00  0.000000D+00
     44  0.000000D+00  0.000000D+00  0.000000D+00  0.000000D+00
     45 -0.133175D-01 -0.109828D+00  0.902058D-01  0.000000D+00  0.000000D+00
     46 -0.339474D-02 -0.140137D+00  0.115100D+00  0.000000D+00  0.000000D+00
               46 
     46  0.000000D+00
 CI dipole matrix                   2
                1             2             3             4             5 
      1  0.000000D+00
      2  0.000000D+00  0.000000D+00
      3  0.000000D+00  0.000000D+00  0.000000D+00
      4  0.000000D+00  0.000000D+00  0.000000D+00  0.000000D+00
      5 -0.137943D+01  0.000000D+00 -0.135784D+01  0.000000D+00  0.000000D+00
      6  0.447095D+00  0.000000D+00  0.440096D+00  0.000000D+00  0.000000D+00
      7  0.000000D+00  0.000000D+00  0.000000D+00  0.000000D+00  0.327247D+00
      8  0.000000D+00  0.531294D+00  0.000000D+00  0.171700D+00  0.000000D+00
      9  0.000000D+00 -0.144863D+01  0.000000D+00 -0.468160D+00  0.000000D+00
     10  0.000000D+00  0.000000D+00  0.000000D+00  0.000000D+00  0.000000D+00
     11  0.000000D+00  0.000000D+00  0.000000D+00  0.000000D+00 -0.113843D+01
     12  0.000000D+00  0.000000D+00  0.000000D+00  0.000000D+00  0.000000D+00
     13  0.000000D+00  0.000000D+00  0.000000D+00  0.000000D+00 -0.116826D+01
     14  0.000000D+00  0.000000D+00  0.000000D+00  0.000000D+00  0.558205D-01
     15  0.387196D+00  0.000000D+00 -0.844747D+00  0.000000D+00  0.000000D+00
     16  0.120301D+00  0.000000D+00 -0.262462D+00  0.000000D+00  0.000000D+00
     17  0.000000D+00  0.000000D+00  0.000000D+00  0.000000D+00  0.470115D-01
     18  0.000000D+00  0.000000D+00  0.000000D+00  0.000000D+00  0.000000D+00
     19  0.000000D+00  0.000000D+00  0.000000D+00  0.000000D+00  0.000000D+00
     20  0.000000D+00 -0.825575D-01  0.000000D+00 -0.960645D+00  0.000000D+00
     21  0.000000D+00  0.247612D-01  0.000000D+00  0.288123D+00  0.000000D+00
     22  0.266224D+00  0.000000D+00 -0.583632D+00  0.000000D+00  0.000000D+00
     23 -0.156798D+00  0.000000D+00  0.343742D+00  0.000000D+00  0.000000D+00
     24  0.000000D+00  0.000000D+00  0.000000D+00  0.000000D+00  0.000000D+00
     25  0.000000D+00  0.000000D+00  0.000000D+00  0.000000D+00 -0.460131D-01
     26  0.000000D+00  0.697295D-01  0.000000D+00  0.237374D-01  0.000000D+00
     27  0.000000D+00  0.824405D-02  0.000000D+00  0.280645D-02  0.000000D+00
     28  0.000000D+00  0.000000D+00  0.000000D+00  0.000000D+00  0.000000D+00
     29  0.000000D+00  0.000000D+00  0.000000D+00  0.000000D+00  0.247788D+00
     30  0.000000D+00  0.000000D+00  0.000000D+00  0.000000D+00  0.000000D+00
     31  0.000000D+00  0.000000D+00  0.000000D+00  0.000000D+00 -0.800637D-01
     32  0.262383D-02  0.000000D+00  0.935143D-01  0.000000D+00  0.000000D+00
     33 -0.493960D-03  0.000000D+00 -0.176049D-01  0.000000D+00  0.000000D+00
     34  0.000000D+00  0.000000D+00  0.000000D+00  0.000000D+00 -0.237094D+00
     35  0.000000D+00  0.000000D+00  0.000000D+00  0.000000D+00 -0.596067D-01
     36  0.000000D+00  0.000000D+00  0.000000D+00  0.000000D+00  0.000000D+00
     37  0.000000D+00  0.000000D+00  0.000000D+00  0.000000D+00  0.000000D+00
     38 -0.646013D-01  0.000000D+00 -0.318828D+00  0.000000D+00  0.000000D+00
     39 -0.138599D-01  0.000000D+00 -0.684032D-01  0.000000D+00  0.000000D+00
     40  0.000000D+00  0.209838D-02  0.000000D+00  0.162156D-01  0.000000D+00
     41  0.000000D+00 -0.117478D-01  0.000000D+00 -0.907829D-01  0.000000D+00
     42  0.000000D+00 -0.659524D-01  0.000000D+00 -0.116690D+00  0.000000D+00
     43  0.000000D+00 -0.802988D-01  0.000000D+00 -0.142073D+00  0.000000D+00
     44  0.000000D+00  0.000000D+00  0.000000D+00  0.000000D+00  0.327760D-01
     45  0.000000D+00  0.000000D+00  0.000000D+00  0.000000D+00  0.000000D+00
     46  0.000000D+00  0.000000D+00  0.000000D+00  0.000000D+00  0.000000D+00
                6             7             8             9            10 
      6  0.000000D+00
      7 -0.106066D+00  0.000000D+00
      8  0.000000D+00  0.000000D+00  0.000000D+00
      9  0.000000D+00  0.000000D+00  0.000000D+00  0.000000D+00
     10  0.000000D+00  0.000000D+00  0.313338D-01 -0.854352D-01  0.000000D+00
     11  0.368983D+00  0.000000D+00  0.000000D+00  0.000000D+00  0.000000D+00
     12  0.000000D+00  0.000000D+00  0.449052D+00 -0.122439D+01  0.000000D+00
     13 -0.558205D-01  0.000000D+00  0.000000D+00  0.000000D+00  0.000000D+00
     14 -0.116826D+01  0.000000D+00  0.000000D+00  0.000000D+00  0.000000D+00
     15  0.000000D+00 -0.632042D+00  0.000000D+00  0.000000D+00  0.000000D+00
     16  0.000000D+00 -0.196375D+00  0.000000D+00  0.000000D+00  0.000000D+00
     17 -0.152372D-01  0.000000D+00  0.000000D+00  0.000000D+00  0.000000D+00
     18  0.000000D+00  0.000000D+00 -0.106486D+01 -0.190418D+00  0.000000D+00
     19  0.000000D+00  0.000000D+00 -0.190418D+00  0.106486D+01  0.000000D+00
     20  0.000000D+00  0.000000D+00  0.000000D+00  0.000000D+00 -0.192819D+00
     21  0.000000D+00  0.000000D+00  0.000000D+00  0.000000D+00  0.578314D-01
     22  0.000000D+00  0.770711D+00  0.000000D+00  0.000000D+00  0.000000D+00
     23  0.000000D+00 -0.453926D+00  0.000000D+00  0.000000D+00  0.000000D+00
     24  0.000000D+00  0.000000D+00 -0.128080D+00  0.349224D+00  0.000000D+00
     25  0.149136D-01  0.000000D+00  0.000000D+00  0.000000D+00  0.000000D+00
     26  0.000000D+00  0.000000D+00  0.000000D+00  0.000000D+00  0.751278D+00
     27  0.000000D+00  0.000000D+00  0.000000D+00  0.000000D+00  0.888229D-01
     28  0.000000D+00  0.000000D+00  0.855003D-01 -0.233126D+00  0.000000D+00
     29 -0.803118D-01  0.000000D+00  0.000000D+00  0.000000D+00  0.000000D+00
     30  0.000000D+00  0.000000D+00 -0.106848D+00  0.291333D+00  0.000000D+00
     31  0.259499D-01  0.000000D+00  0.000000D+00  0.000000D+00  0.000000D+00
     32  0.000000D+00  0.273393D+00  0.000000D+00  0.000000D+00  0.000000D+00
     33  0.000000D+00 -0.514687D-01  0.000000D+00  0.000000D+00  0.000000D+00
     34 -0.596067D-01  0.000000D+00  0.000000D+00  0.000000D+00  0.000000D+00
     35  0.237094D+00  0.000000D+00  0.000000D+00  0.000000D+00  0.000000D+00
     36  0.000000D+00  0.000000D+00  0.227775D+00  0.115328D+00  0.000000D+00
     37  0.000000D+00  0.000000D+00  0.115328D+00 -0.227775D+00  0.000000D+00
     38  0.000000D+00  0.124016D+00  0.000000D+00  0.000000D+00  0.000000D+00
     39  0.000000D+00  0.266070D-01  0.000000D+00  0.000000D+00  0.000000D+00
     40  0.000000D+00  0.000000D+00  0.000000D+00  0.000000D+00  0.337903D-01
     41  0.000000D+00  0.000000D+00  0.000000D+00  0.000000D+00 -0.189175D+00
     42  0.000000D+00  0.000000D+00  0.000000D+00  0.000000D+00  0.672199D-02
     43  0.000000D+00  0.000000D+00  0.000000D+00  0.000000D+00  0.818420D-02
     44 -0.106232D-01  0.000000D+00  0.000000D+00  0.000000D+00  0.000000D+00
     45  0.000000D+00  0.000000D+00  0.217221D-01 -0.592276D-01  0.000000D+00
     46  0.000000D+00  0.000000D+00 -0.155797D-01  0.424798D-01  0.000000D+00
               11            12            13            14            15 
     11  0.000000D+00
     12  0.000000D+00  0.000000D+00
     13  0.000000D+00  0.000000D+00  0.000000D+00
     14  0.000000D+00  0.000000D+00  0.000000D+00  0.000000D+00
     15 -0.561544D-01  0.000000D+00  0.939144D-01 -0.732522D-01  0.000000D+00
     16 -0.174471D-01  0.000000D+00  0.732522D-01  0.939144D-01  0.000000D+00
     17  0.000000D+00  0.000000D+00  0.000000D+00  0.000000D+00  0.747648D-01
     18  0.000000D+00  0.000000D+00  0.000000D+00  0.000000D+00  0.000000D+00
     19  0.000000D+00  0.000000D+00  0.000000D+00  0.000000D+00  0.000000D+00
     20  0.000000D+00 -0.474324D+00  0.000000D+00  0.000000D+00  0.000000D+00
     21  0.000000D+00  0.142262D+00  0.000000D+00  0.000000D+00  0.000000D+00
     22 -0.381472D+00  0.000000D+00 -0.448630D-01  0.557799D-01  0.000000D+00
     23  0.224676D+00  0.000000D+00  0.557799D-01  0.448630D-01  0.000000D+00
     24  0.000000D+00  0.000000D+00  0.000000D+00  0.000000D+00  0.000000D+00
     25  0.000000D+00  0.000000D+00  0.000000D+00  0.000000D+00 -0.132388D+00
     26  0.000000D+00 -0.113209D+00  0.000000D+00  0.000000D+00  0.000000D+00
     27  0.000000D+00 -0.133846D-01  0.000000D+00  0.000000D+00  0.000000D+00
     28  0.000000D+00  0.000000D+00  0.000000D+00  0.000000D+00  0.000000D+00
     29  0.000000D+00  0.000000D+00  0.000000D+00  0.000000D+00  0.356559D+00
     30  0.000000D+00  0.000000D+00  0.000000D+00  0.000000D+00  0.000000D+00
     31  0.000000D+00  0.000000D+00  0.000000D+00  0.000000D+00 -0.283708D+00
     32 -0.139923D+00  0.000000D+00 -0.664164D-01  0.117495D-01  0.000000D+00
     33  0.263418D-01  0.000000D+00 -0.117495D-01 -0.664164D-01  0.000000D+00
     34  0.000000D+00  0.000000D+00  0.000000D+00  0.000000D+00 -0.185578D+00
     35  0.000000D+00  0.000000D+00  0.000000D+00  0.000000D+00 -0.215985D+00
     36  0.000000D+00  0.000000D+00  0.000000D+00  0.000000D+00  0.000000D+00
     37  0.000000D+00  0.000000D+00  0.000000D+00  0.000000D+00  0.000000D+00
     38  0.261856D+00  0.000000D+00  0.137132D+00 -0.883856D-01  0.000000D+00
     39  0.561801D-01  0.000000D+00  0.883856D-01  0.137132D+00  0.000000D+00
     40  0.000000D+00  0.142101D-01  0.000000D+00  0.000000D+00  0.000000D+00
     41  0.000000D+00 -0.795554D-01  0.000000D+00  0.000000D+00  0.000000D+00
     42  0.000000D+00  0.144051D+00  0.000000D+00  0.000000D+00  0.000000D+00
     43  0.000000D+00  0.175385D+00  0.000000D+00  0.000000D+00  0.000000D+00
     44  0.000000D+00  0.000000D+00  0.000000D+00  0.000000D+00  0.210433D+00
     45  0.000000D+00  0.000000D+00  0.000000D+00  0.000000D+00  0.000000D+00
     46  0.000000D+00  0.000000D+00  0.000000D+00  0.000000D+00  0.000000D+00
               16            17            18            19            20 
     16  0.000000D+00
     17  0.232294D-01  0.000000D+00
     18  0.000000D+00  0.000000D+00  0.000000D+00
     19  0.000000D+00  0.000000D+00  0.000000D+00  0.000000D+00
     20  0.000000D+00  0.000000D+00  0.167152D-01 -0.142439D+00  0.000000D+00
     21  0.000000D+00  0.000000D+00  0.142439D+00  0.167152D-01  0.000000D+00
     22  0.000000D+00  0.401182D-01  0.000000D+00  0.000000D+00  0.000000D+00
     23  0.000000D+00 -0.236284D-01  0.000000D+00  0.000000D+00  0.000000D+00
     24  0.000000D+00  0.000000D+00  0.000000D+00  0.000000D+00  0.878305D-01
     25 -0.411329D-01  0.000000D+00  0.000000D+00  0.000000D+00  0.000000D+00
     26  0.000000D+00  0.000000D+00 -0.501655D-01 -0.166734D+00  0.000000D+00
     27  0.000000D+00  0.000000D+00  0.166734D+00 -0.501655D-01  0.000000D+00
     28  0.000000D+00  0.000000D+00  0.000000D+00  0.000000D+00 -0.474328D+00
     29  0.110783D+00  0.000000D+00  0.000000D+00  0.000000D+00  0.000000D+00
     30  0.000000D+00  0.000000D+00  0.000000D+00  0.000000D+00  0.507795D+00
     31 -0.881477D-01  0.000000D+00  0.000000D+00  0.000000D+00  0.000000D+00
     32  0.000000D+00  0.488274D+00  0.000000D+00  0.000000D+00  0.000000D+00
     33  0.000000D+00 -0.919221D-01  0.000000D+00  0.000000D+00  0.000000D+00
     34 -0.215985D+00  0.000000D+00  0.000000D+00  0.000000D+00  0.000000D+00
     35  0.185578D+00  0.000000D+00  0.000000D+00  0.000000D+00  0.000000D+00
     36  0.000000D+00  0.000000D+00  0.000000D+00  0.000000D+00  0.132751D+00
     37  0.000000D+00  0.000000D+00  0.000000D+00  0.000000D+00 -0.306640D+00
     38  0.000000D+00  0.753471D-01  0.000000D+00  0.000000D+00  0.000000D+00
     39  0.000000D+00  0.161654D-01  0.000000D+00  0.000000D+00  0.000000D+00
     40  0.000000D+00  0.000000D+00 -0.538159D-01 -0.117386D-03  0.000000D+00
     41  0.000000D+00  0.000000D+00 -0.117386D-03  0.538159D-01  0.000000D+00
     42  0.000000D+00  0.000000D+00  0.160741D+00 -0.187539D+00  0.000000D+00
     43  0.000000D+00  0.000000D+00 -0.187539D+00 -0.160741D+00  0.000000D+00
     44  0.653812D-01  0.000000D+00  0.000000D+00  0.000000D+00  0.000000D+00
     45  0.000000D+00  0.000000D+00  0.000000D+00  0.000000D+00 -0.117722D+00
     46  0.000000D+00  0.000000D+00  0.000000D+00  0.000000D+00  0.198379D+00
               21            22            23            24            25 
     21  0.000000D+00
     22  0.000000D+00  0.000000D+00
     23  0.000000D+00  0.000000D+00  0.000000D+00
     24 -0.263427D-01  0.000000D+00  0.000000D+00  0.000000D+00
     25  0.000000D+00  0.427323D+00 -0.251681D+00  0.000000D+00  0.000000D+00
     26  0.000000D+00  0.000000D+00  0.000000D+00 -0.536712D+00  0.000000D+00
     27  0.000000D+00  0.000000D+00  0.000000D+00 -0.634549D-01  0.000000D+00
     28  0.142264D+00  0.000000D+00  0.000000D+00  0.000000D+00  0.000000D+00
     29  0.000000D+00  0.509253D+00 -0.299935D+00  0.000000D+00  0.000000D+00
     30 -0.152301D+00  0.000000D+00  0.000000D+00  0.000000D+00  0.000000D+00
     31  0.000000D+00 -0.762619D-01  0.449160D-01  0.000000D+00  0.000000D+00
     32  0.000000D+00  0.000000D+00  0.000000D+00  0.000000D+00 -0.110767D+00
     33  0.000000D+00  0.000000D+00  0.000000D+00  0.000000D+00  0.208529D-01
     34  0.000000D+00 -0.198773D+00  0.382935D+00  0.000000D+00  0.000000D+00
     35  0.000000D+00 -0.382935D+00 -0.198773D+00  0.000000D+00  0.000000D+00
     36  0.306640D+00  0.000000D+00  0.000000D+00  0.000000D+00  0.000000D+00
     37  0.132751D+00  0.000000D+00  0.000000D+00  0.000000D+00  0.000000D+00
     38  0.000000D+00  0.000000D+00  0.000000D+00  0.000000D+00  0.989884D-01
     39  0.000000D+00  0.000000D+00  0.000000D+00  0.000000D+00  0.212375D-01
     40  0.000000D+00  0.000000D+00  0.000000D+00  0.689396D-02  0.000000D+00
     41  0.000000D+00  0.000000D+00  0.000000D+00 -0.385959D-01  0.000000D+00
     42  0.000000D+00  0.000000D+00  0.000000D+00 -0.170829D+00  0.000000D+00
     43  0.000000D+00  0.000000D+00  0.000000D+00 -0.207989D+00  0.000000D+00
     44  0.000000D+00 -0.154359D+00  0.909131D-01  0.000000D+00  0.000000D+00
     45  0.353078D-01  0.000000D+00  0.000000D+00  0.000000D+00  0.000000D+00
     46 -0.594992D-01  0.000000D+00  0.000000D+00  0.000000D+00  0.000000D+00
               26            27            28            29            30 
     26  0.000000D+00
     27  0.000000D+00  0.000000D+00
     28 -0.617605D-01 -0.730188D-02  0.000000D+00
     29  0.000000D+00  0.000000D+00  0.000000D+00  0.000000D+00
     30  0.331965D+00  0.392479D-01  0.000000D+00  0.000000D+00  0.000000D+00
     31  0.000000D+00  0.000000D+00  0.000000D+00  0.000000D+00  0.000000D+00
     32  0.000000D+00  0.000000D+00  0.000000D+00  0.140774D-01  0.000000D+00
     33  0.000000D+00  0.000000D+00  0.000000D+00 -0.265021D-02  0.000000D+00
     34  0.000000D+00  0.000000D+00  0.000000D+00  0.000000D+00  0.000000D+00
     35  0.000000D+00  0.000000D+00  0.000000D+00  0.000000D+00  0.000000D+00
     36 -0.176091D-03  0.343843D+00  0.000000D+00  0.000000D+00  0.000000D+00
     37 -0.343843D+00 -0.176091D-03  0.000000D+00  0.000000D+00  0.000000D+00
     38  0.000000D+00  0.000000D+00  0.000000D+00  0.408846D+00  0.000000D+00
     39  0.000000D+00  0.000000D+00  0.000000D+00  0.877160D-01  0.000000D+00
     40  0.000000D+00  0.000000D+00 -0.881140D-01  0.000000D+00 -0.237746D-01
     41  0.000000D+00  0.000000D+00  0.493307D+00  0.000000D+00  0.133102D+00
     42  0.000000D+00  0.000000D+00 -0.127073D+00  0.000000D+00  0.212637D+00
     43  0.000000D+00  0.000000D+00 -0.154715D+00  0.000000D+00  0.258891D+00
     44  0.000000D+00  0.000000D+00  0.000000D+00  0.000000D+00  0.000000D+00
     45  0.199963D+00  0.236414D-01  0.000000D+00  0.000000D+00  0.000000D+00
     46 -0.222143D+00 -0.262637D-01  0.000000D+00  0.000000D+00  0.000000D+00
               31            32            33            34            35 
     31  0.000000D+00
     32  0.340060D-01  0.000000D+00
     33 -0.640195D-02  0.000000D+00  0.000000D+00
     34  0.000000D+00  0.811187D-02  0.318042D-02  0.000000D+00
     35  0.000000D+00  0.318042D-02 -0.811187D-02  0.000000D+00  0.000000D+00
     36  0.000000D+00  0.000000D+00  0.000000D+00  0.000000D+00  0.000000D+00
     37  0.000000D+00  0.000000D+00  0.000000D+00  0.000000D+00  0.000000D+00
     38  0.121178D+00  0.000000D+00  0.000000D+00  0.129553D+00  0.125894D+00
     39  0.259981D-01  0.000000D+00  0.000000D+00  0.125894D+00 -0.129553D+00
     40  0.000000D+00  0.000000D+00  0.000000D+00  0.000000D+00  0.000000D+00
     41  0.000000D+00  0.000000D+00  0.000000D+00  0.000000D+00  0.000000D+00
     42  0.000000D+00  0.000000D+00  0.000000D+00  0.000000D+00  0.000000D+00
     43  0.000000D+00  0.000000D+00  0.000000D+00  0.000000D+00  0.000000D+00
     44  0.000000D+00 -0.147934D+00  0.278500D-01  0.000000D+00  0.000000D+00
     45  0.000000D+00  0.000000D+00  0.000000D+00  0.000000D+00  0.000000D+00
     46  0.000000D+00  0.000000D+00  0.000000D+00  0.000000D+00  0.000000D+00
               36            37            38            39            40 
     36  0.000000D+00
     37  0.000000D+00  0.000000D+00
     38  0.000000D+00  0.000000D+00  0.000000D+00
     39  0.000000D+00  0.000000D+00  0.000000D+00  0.000000D+00
     40  0.628343D-01  0.190195D-01  0.000000D+00  0.000000D+00  0.000000D+00
     41  0.190195D-01 -0.628343D-01  0.000000D+00  0.000000D+00  0.000000D+00
     42 -0.133275D+00  0.855090D-01  0.000000D+00  0.000000D+00  0.000000D+00
     43  0.855090D-01  0.133275D+00  0.000000D+00  0.000000D+00  0.000000D+00
     44  0.000000D+00  0.000000D+00  0.476753D-01  0.102285D-01  0.000000D+00
     45  0.000000D+00  0.000000D+00  0.000000D+00  0.000000D+00  0.133175D-01
     46  0.000000D+00  0.000000D+00  0.000000D+00  0.000000D+00  0.339474D-02
               41            42            43            44            45 
     41  0.000000D+00
     42  0.000000D+00  0.000000D+00
     43  0.000000D+00  0.000000D+00  0.000000D+00
     44  0.000000D+00  0.000000D+00  0.000000D+00  0.000000D+00
     45 -0.745583D-01 -0.902058D-01 -0.109828D+00  0.000000D+00  0.000000D+00
     46 -0.190055D-01 -0.115100D+00 -0.140137D+00  0.000000D+00  0.000000D+00
               46 
     46  0.000000D+00
 CI dipole matrix                   3
                1             2             3             4             5 
      1  0.000000D+00
      2 -0.203233D+01  0.000000D+00
      3  0.000000D+00 -0.218053D+01  0.000000D+00
      4  0.807884D+00  0.000000D+00 -0.324298D+01  0.000000D+00
      5  0.000000D+00  0.000000D+00  0.000000D+00  0.000000D+00  0.000000D+00
      6  0.000000D+00  0.000000D+00  0.000000D+00  0.000000D+00  0.000000D+00
      7  0.000000D+00 -0.190895D+01  0.000000D+00  0.437590D+00  0.000000D+00
      8  0.000000D+00  0.000000D+00  0.000000D+00  0.000000D+00  0.735615D-01
      9  0.000000D+00  0.000000D+00  0.000000D+00  0.000000D+00 -0.193025D+01
     10 -0.151168D+00  0.000000D+00  0.618688D-03  0.000000D+00  0.000000D+00
     11  0.000000D+00  0.297683D+00  0.000000D+00  0.147457D+01  0.000000D+00
     12  0.167404D+00  0.000000D+00  0.114965D+00  0.000000D+00  0.000000D+00
     13  0.000000D+00  0.000000D+00  0.000000D+00  0.000000D+00  0.000000D+00
     14  0.000000D+00  0.000000D+00  0.000000D+00  0.000000D+00  0.000000D+00
     15  0.000000D+00  0.000000D+00  0.000000D+00  0.000000D+00  0.000000D+00
     16  0.000000D+00  0.000000D+00  0.000000D+00  0.000000D+00  0.000000D+00
     17  0.000000D+00 -0.644811D-01  0.000000D+00 -0.100094D+01  0.000000D+00
     18  0.000000D+00  0.000000D+00  0.000000D+00  0.000000D+00  0.000000D+00
     19  0.000000D+00  0.000000D+00  0.000000D+00  0.000000D+00  0.000000D+00
     20  0.000000D+00  0.000000D+00  0.000000D+00  0.000000D+00  0.758049D-01
     21  0.000000D+00  0.000000D+00  0.000000D+00  0.000000D+00  0.167118D-02
     22  0.000000D+00  0.000000D+00  0.000000D+00  0.000000D+00  0.000000D+00
     23  0.000000D+00  0.000000D+00  0.000000D+00  0.000000D+00  0.000000D+00
     24 -0.156201D+00  0.000000D+00  0.859975D-01  0.000000D+00  0.000000D+00
     25  0.000000D+00 -0.165276D+00  0.000000D+00 -0.404497D+00  0.000000D+00
     26  0.000000D+00  0.000000D+00  0.000000D+00  0.000000D+00 -0.159308D+00
     27  0.000000D+00  0.000000D+00  0.000000D+00  0.000000D+00 -0.732769D-01
     28  0.105574D+00  0.000000D+00 -0.118287D-01  0.000000D+00  0.000000D+00
     29  0.000000D+00 -0.140847D+00  0.000000D+00 -0.399453D+00  0.000000D+00
     30  0.451980D-01  0.000000D+00 -0.138397D-01  0.000000D+00  0.000000D+00
     31  0.000000D+00  0.268640D-01  0.000000D+00 -0.269217D-02  0.000000D+00
     32  0.000000D+00  0.000000D+00  0.000000D+00  0.000000D+00  0.000000D+00
     33  0.000000D+00  0.000000D+00  0.000000D+00  0.000000D+00  0.000000D+00
     34  0.000000D+00  0.000000D+00  0.000000D+00  0.000000D+00  0.000000D+00
     35  0.000000D+00  0.000000D+00  0.000000D+00  0.000000D+00  0.000000D+00
     36  0.000000D+00  0.000000D+00  0.000000D+00  0.000000D+00  0.000000D+00
     37  0.000000D+00  0.000000D+00  0.000000D+00  0.000000D+00  0.000000D+00
     38  0.000000D+00  0.000000D+00  0.000000D+00  0.000000D+00  0.000000D+00
     39  0.000000D+00  0.000000D+00  0.000000D+00  0.000000D+00  0.000000D+00
     40  0.000000D+00  0.000000D+00  0.000000D+00  0.000000D+00  0.558199D-02
     41  0.000000D+00  0.000000D+00  0.000000D+00  0.000000D+00  0.405862D-01
     42  0.000000D+00  0.000000D+00  0.000000D+00  0.000000D+00 -0.253537D-01
     43  0.000000D+00  0.000000D+00  0.000000D+00  0.000000D+00 -0.162419D-01
     44  0.000000D+00 -0.126665D+00  0.000000D+00 -0.181210D+00  0.000000D+00
     45 -0.499587D-01  0.000000D+00  0.179758D-01  0.000000D+00  0.000000D+00
     46  0.118513D-01  0.000000D+00 -0.438830D-02  0.000000D+00  0.000000D+00
                6             7             8             9            10 
      6  0.000000D+00
      7  0.000000D+00  0.000000D+00
      8 -0.193025D+01  0.000000D+00  0.000000D+00
      9 -0.735615D-01  0.000000D+00  0.000000D+00  0.000000D+00
     10  0.000000D+00  0.292400D+01  0.000000D+00  0.000000D+00  0.000000D+00
     11  0.000000D+00  0.000000D+00  0.000000D+00  0.000000D+00  0.923829D+00
     12  0.000000D+00  0.103125D+00  0.000000D+00  0.000000D+00  0.000000D+00
     13  0.000000D+00  0.000000D+00  0.000000D+00  0.000000D+00  0.000000D+00
     14  0.000000D+00  0.000000D+00  0.000000D+00  0.000000D+00  0.000000D+00
     15  0.000000D+00  0.000000D+00  0.792956D+00 -0.103712D+01  0.000000D+00
     16  0.000000D+00  0.000000D+00 -0.103712D+01 -0.792956D+00  0.000000D+00
     17  0.000000D+00  0.000000D+00  0.000000D+00  0.000000D+00  0.140572D+01
     18  0.000000D+00  0.000000D+00  0.000000D+00  0.000000D+00  0.000000D+00
     19  0.000000D+00  0.000000D+00  0.000000D+00  0.000000D+00  0.000000D+00
     20 -0.167118D-02  0.000000D+00  0.000000D+00  0.000000D+00  0.000000D+00
     21  0.758049D-01  0.000000D+00  0.000000D+00  0.000000D+00  0.000000D+00
     22  0.000000D+00  0.000000D+00 -0.483041D+00  0.396244D+00  0.000000D+00
     23  0.000000D+00  0.000000D+00 -0.396244D+00 -0.483041D+00  0.000000D+00
     24  0.000000D+00 -0.263128D+00  0.000000D+00  0.000000D+00  0.000000D+00
     25  0.000000D+00  0.000000D+00  0.000000D+00  0.000000D+00 -0.937326D+00
     26  0.732769D-01  0.000000D+00  0.000000D+00  0.000000D+00  0.000000D+00
     27 -0.159308D+00  0.000000D+00  0.000000D+00  0.000000D+00  0.000000D+00
     28  0.000000D+00 -0.154454D+00  0.000000D+00  0.000000D+00  0.000000D+00
     29  0.000000D+00  0.000000D+00  0.000000D+00  0.000000D+00 -0.463334D+00
     30  0.000000D+00  0.267989D-01  0.000000D+00  0.000000D+00  0.000000D+00
     31  0.000000D+00  0.000000D+00  0.000000D+00  0.000000D+00 -0.349430D+00
     32  0.000000D+00  0.000000D+00 -0.646105D-01  0.386964D+00  0.000000D+00
     33  0.000000D+00  0.000000D+00  0.386964D+00  0.646105D-01  0.000000D+00
     34  0.000000D+00  0.000000D+00  0.000000D+00  0.000000D+00  0.000000D+00
     35  0.000000D+00  0.000000D+00  0.000000D+00  0.000000D+00  0.000000D+00
     36  0.000000D+00  0.000000D+00  0.000000D+00  0.000000D+00  0.000000D+00
     37  0.000000D+00  0.000000D+00  0.000000D+00  0.000000D+00  0.000000D+00
     38  0.000000D+00  0.000000D+00  0.367218D-01 -0.582011D-01  0.000000D+00
     39  0.000000D+00  0.000000D+00 -0.582011D-01 -0.367218D-01  0.000000D+00
     40  0.405862D-01  0.000000D+00  0.000000D+00  0.000000D+00  0.000000D+00
     41 -0.558199D-02  0.000000D+00  0.000000D+00  0.000000D+00  0.000000D+00
     42 -0.162419D-01  0.000000D+00  0.000000D+00  0.000000D+00  0.000000D+00
     43  0.253537D-01  0.000000D+00  0.000000D+00  0.000000D+00  0.000000D+00
     44  0.000000D+00  0.000000D+00  0.000000D+00  0.000000D+00  0.345828D+00
     45  0.000000D+00 -0.169351D-01  0.000000D+00  0.000000D+00  0.000000D+00
     46  0.000000D+00 -0.342286D-02  0.000000D+00  0.000000D+00  0.000000D+00
               11            12            13            14            15 
     11  0.000000D+00
     12 -0.151580D+01  0.000000D+00
     13  0.000000D+00  0.000000D+00  0.000000D+00
     14  0.000000D+00  0.000000D+00  0.000000D+00  0.000000D+00
     15  0.000000D+00  0.000000D+00  0.000000D+00  0.000000D+00  0.000000D+00
     16  0.000000D+00  0.000000D+00  0.000000D+00  0.000000D+00  0.000000D+00
     17  0.000000D+00  0.352567D-01  0.000000D+00  0.000000D+00  0.000000D+00
     18  0.000000D+00  0.000000D+00 -0.284006D+00 -0.150427D+01  0.000000D+00
     19  0.000000D+00  0.000000D+00  0.150427D+01 -0.284006D+00  0.000000D+00
     20  0.000000D+00  0.000000D+00  0.000000D+00  0.000000D+00 -0.729842D-01
     21  0.000000D+00  0.000000D+00  0.000000D+00  0.000000D+00  0.491458D-01
     22  0.000000D+00  0.000000D+00  0.000000D+00  0.000000D+00  0.000000D+00
     23  0.000000D+00  0.000000D+00  0.000000D+00  0.000000D+00  0.000000D+00
     24  0.286807D+00  0.000000D+00  0.000000D+00  0.000000D+00  0.000000D+00
     25  0.000000D+00  0.126006D+00  0.000000D+00  0.000000D+00  0.000000D+00
     26  0.000000D+00  0.000000D+00  0.000000D+00  0.000000D+00 -0.133945D+01
     27  0.000000D+00  0.000000D+00  0.000000D+00  0.000000D+00  0.248669D+00
     28 -0.201924D+00  0.000000D+00  0.000000D+00  0.000000D+00  0.000000D+00
     29  0.000000D+00 -0.332528D-01  0.000000D+00  0.000000D+00  0.000000D+00
     30 -0.238841D-01  0.000000D+00  0.000000D+00  0.000000D+00  0.000000D+00
     31  0.000000D+00 -0.228644D+00  0.000000D+00  0.000000D+00  0.000000D+00
     32  0.000000D+00  0.000000D+00  0.000000D+00  0.000000D+00  0.000000D+00
     33  0.000000D+00  0.000000D+00  0.000000D+00  0.000000D+00  0.000000D+00
     34  0.000000D+00  0.000000D+00  0.000000D+00  0.000000D+00  0.000000D+00
     35  0.000000D+00  0.000000D+00  0.000000D+00  0.000000D+00  0.000000D+00
     36  0.000000D+00  0.000000D+00  0.299412D-01  0.577445D-01  0.000000D+00
     37  0.000000D+00  0.000000D+00 -0.577445D-01  0.299412D-01  0.000000D+00
     38  0.000000D+00  0.000000D+00  0.000000D+00  0.000000D+00  0.000000D+00
     39  0.000000D+00  0.000000D+00  0.000000D+00  0.000000D+00  0.000000D+00
     40  0.000000D+00  0.000000D+00  0.000000D+00  0.000000D+00 -0.805932D-01
     41  0.000000D+00  0.000000D+00  0.000000D+00  0.000000D+00  0.155565D+00
     42  0.000000D+00  0.000000D+00  0.000000D+00  0.000000D+00 -0.213501D-01
     43  0.000000D+00  0.000000D+00  0.000000D+00  0.000000D+00 -0.524801D-01
     44  0.000000D+00  0.475579D+00  0.000000D+00  0.000000D+00  0.000000D+00
     45  0.350566D-01  0.000000D+00  0.000000D+00  0.000000D+00  0.000000D+00
     46 -0.120080D-01  0.000000D+00  0.000000D+00  0.000000D+00  0.000000D+00
               16            17            18            19            20 
     16  0.000000D+00
     17  0.000000D+00  0.000000D+00
     18  0.000000D+00  0.000000D+00  0.000000D+00
     19  0.000000D+00  0.000000D+00  0.000000D+00  0.000000D+00
     20 -0.491458D-01  0.000000D+00  0.000000D+00  0.000000D+00  0.000000D+00
     21 -0.729842D-01  0.000000D+00  0.000000D+00  0.000000D+00  0.000000D+00
     22  0.000000D+00  0.000000D+00  0.000000D+00  0.000000D+00 -0.131865D+01
     23  0.000000D+00  0.000000D+00  0.000000D+00  0.000000D+00  0.142362D+01
     24  0.000000D+00  0.201096D+01  0.000000D+00  0.000000D+00  0.000000D+00
     25  0.000000D+00  0.000000D+00  0.000000D+00  0.000000D+00  0.000000D+00
     26 -0.248669D+00  0.000000D+00  0.000000D+00  0.000000D+00  0.000000D+00
     27 -0.133945D+01  0.000000D+00  0.000000D+00  0.000000D+00  0.000000D+00
     28  0.000000D+00 -0.732056D+00  0.000000D+00  0.000000D+00  0.000000D+00
     29  0.000000D+00  0.000000D+00  0.000000D+00  0.000000D+00  0.000000D+00
     30  0.000000D+00  0.174894D+00  0.000000D+00  0.000000D+00  0.000000D+00
     31  0.000000D+00  0.000000D+00  0.000000D+00  0.000000D+00  0.000000D+00
     32  0.000000D+00  0.000000D+00  0.000000D+00  0.000000D+00  0.347189D+00
     33  0.000000D+00  0.000000D+00  0.000000D+00  0.000000D+00  0.366975D-01
     34  0.000000D+00  0.000000D+00 -0.313194D-02  0.772543D-02  0.000000D+00
     35  0.000000D+00  0.000000D+00  0.772543D-02  0.313194D-02  0.000000D+00
     36  0.000000D+00  0.000000D+00  0.000000D+00  0.000000D+00  0.000000D+00
     37  0.000000D+00  0.000000D+00  0.000000D+00  0.000000D+00  0.000000D+00
     38  0.000000D+00  0.000000D+00  0.000000D+00  0.000000D+00 -0.302995D+00
     39  0.000000D+00  0.000000D+00  0.000000D+00  0.000000D+00 -0.166603D+00
     40  0.155565D+00  0.000000D+00  0.000000D+00  0.000000D+00  0.000000D+00
     41  0.805932D-01  0.000000D+00  0.000000D+00  0.000000D+00  0.000000D+00
     42 -0.524801D-01  0.000000D+00  0.000000D+00  0.000000D+00  0.000000D+00
     43  0.213501D-01  0.000000D+00  0.000000D+00  0.000000D+00  0.000000D+00
     44  0.000000D+00  0.000000D+00  0.000000D+00  0.000000D+00  0.000000D+00
     45  0.000000D+00 -0.853277D-01  0.000000D+00  0.000000D+00  0.000000D+00
     46  0.000000D+00 -0.130395D+00  0.000000D+00  0.000000D+00  0.000000D+00
               21            22            23            24            25 
     21  0.000000D+00
     22  0.142362D+01  0.000000D+00
     23  0.131865D+01  0.000000D+00  0.000000D+00
     24  0.000000D+00  0.000000D+00  0.000000D+00  0.000000D+00
     25  0.000000D+00  0.000000D+00  0.000000D+00  0.180629D+01  0.000000D+00
     26  0.000000D+00  0.458751D+00 -0.201895D+00  0.000000D+00  0.000000D+00
     27  0.000000D+00 -0.201895D+00 -0.458751D+00  0.000000D+00  0.000000D+00
     28  0.000000D+00  0.000000D+00  0.000000D+00  0.000000D+00  0.122627D+01
     29  0.000000D+00  0.000000D+00  0.000000D+00 -0.393149D+00  0.000000D+00
     30  0.000000D+00  0.000000D+00  0.000000D+00  0.000000D+00  0.593089D+00
     31  0.000000D+00  0.000000D+00  0.000000D+00 -0.477052D-01  0.000000D+00
     32 -0.366975D-01  0.000000D+00  0.000000D+00  0.000000D+00  0.000000D+00
     33  0.347189D+00  0.000000D+00  0.000000D+00  0.000000D+00  0.000000D+00
     34  0.000000D+00  0.000000D+00  0.000000D+00  0.000000D+00  0.000000D+00
     35  0.000000D+00  0.000000D+00  0.000000D+00  0.000000D+00  0.000000D+00
     36  0.000000D+00  0.000000D+00  0.000000D+00  0.000000D+00  0.000000D+00
     37  0.000000D+00  0.000000D+00  0.000000D+00  0.000000D+00  0.000000D+00
     38  0.166603D+00  0.000000D+00  0.000000D+00  0.000000D+00  0.000000D+00
     39 -0.302995D+00  0.000000D+00  0.000000D+00  0.000000D+00  0.000000D+00
     40  0.000000D+00 -0.873925D-01 -0.101876D+00  0.000000D+00  0.000000D+00
     41  0.000000D+00  0.101876D+00 -0.873925D-01  0.000000D+00  0.000000D+00
     42  0.000000D+00  0.151730D-01 -0.968852D-01  0.000000D+00  0.000000D+00
     43  0.000000D+00  0.968852D-01  0.151730D-01  0.000000D+00  0.000000D+00
     44  0.000000D+00  0.000000D+00  0.000000D+00  0.318901D+00  0.000000D+00
     45  0.000000D+00  0.000000D+00  0.000000D+00  0.000000D+00  0.105104D+00
     46  0.000000D+00  0.000000D+00  0.000000D+00  0.000000D+00 -0.189020D+00
               26            27            28            29            30 
     26  0.000000D+00
     27  0.000000D+00  0.000000D+00
     28  0.000000D+00  0.000000D+00  0.000000D+00
     29  0.000000D+00  0.000000D+00  0.104536D+01  0.000000D+00
     30  0.000000D+00  0.000000D+00  0.000000D+00 -0.121421D+01  0.000000D+00
     31  0.000000D+00  0.000000D+00  0.826078D+00  0.000000D+00  0.650524D+00
     32  0.590797D+00  0.185194D+00  0.000000D+00  0.000000D+00  0.000000D+00
     33 -0.185194D+00  0.590797D+00  0.000000D+00  0.000000D+00  0.000000D+00
     34  0.000000D+00  0.000000D+00  0.000000D+00  0.000000D+00  0.000000D+00
     35  0.000000D+00  0.000000D+00  0.000000D+00  0.000000D+00  0.000000D+00
     36  0.000000D+00  0.000000D+00  0.000000D+00  0.000000D+00  0.000000D+00
     37  0.000000D+00  0.000000D+00  0.000000D+00  0.000000D+00  0.000000D+00
     38  0.432313D+00 -0.406087D-01  0.000000D+00  0.000000D+00  0.000000D+00
     39  0.406087D-01  0.432313D+00  0.000000D+00  0.000000D+00  0.000000D+00
     40  0.000000D+00  0.000000D+00  0.000000D+00  0.000000D+00  0.000000D+00
     41  0.000000D+00  0.000000D+00  0.000000D+00  0.000000D+00  0.000000D+00
     42  0.000000D+00  0.000000D+00  0.000000D+00  0.000000D+00  0.000000D+00
     43  0.000000D+00  0.000000D+00  0.000000D+00  0.000000D+00  0.000000D+00
     44  0.000000D+00  0.000000D+00  0.227289D+00  0.000000D+00  0.798692D+00
     45  0.000000D+00  0.000000D+00  0.000000D+00  0.372683D+00  0.000000D+00
     46  0.000000D+00  0.000000D+00  0.000000D+00  0.394035D-01  0.000000D+00
               31            32            33            34            35 
     31  0.000000D+00
     32  0.000000D+00  0.000000D+00
     33  0.000000D+00  0.000000D+00  0.000000D+00
     34  0.000000D+00  0.000000D+00  0.000000D+00  0.000000D+00
     35  0.000000D+00  0.000000D+00  0.000000D+00  0.000000D+00  0.000000D+00
     36  0.000000D+00  0.000000D+00  0.000000D+00  0.895009D+00 -0.111382D+01
     37  0.000000D+00  0.000000D+00  0.000000D+00 -0.111382D+01 -0.895009D+00
     38  0.000000D+00  0.000000D+00  0.000000D+00  0.000000D+00  0.000000D+00
     39  0.000000D+00  0.000000D+00  0.000000D+00  0.000000D+00  0.000000D+00
     40  0.000000D+00 -0.121438D-01 -0.130206D+01  0.000000D+00  0.000000D+00
     41  0.000000D+00 -0.130206D+01  0.121438D-01  0.000000D+00  0.000000D+00
     42  0.000000D+00 -0.506640D+00 -0.424230D+00  0.000000D+00  0.000000D+00
     43  0.000000D+00 -0.424230D+00  0.506640D+00  0.000000D+00  0.000000D+00
     44  0.000000D+00  0.000000D+00  0.000000D+00  0.000000D+00  0.000000D+00
     45  0.887723D+00  0.000000D+00  0.000000D+00  0.000000D+00  0.000000D+00
     46  0.802301D+00  0.000000D+00  0.000000D+00  0.000000D+00  0.000000D+00
               36            37            38            39            40 
     36  0.000000D+00
     37  0.000000D+00  0.000000D+00
     38  0.000000D+00  0.000000D+00  0.000000D+00
     39  0.000000D+00  0.000000D+00  0.000000D+00  0.000000D+00
     40  0.000000D+00  0.000000D+00 -0.109508D+00  0.267856D+00  0.000000D+00
     41  0.000000D+00  0.000000D+00  0.267856D+00  0.109508D+00  0.000000D+00
     42  0.000000D+00  0.000000D+00 -0.624676D+00 -0.121088D+01  0.000000D+00
     43  0.000000D+00  0.000000D+00 -0.121088D+01  0.624676D+00  0.000000D+00
     44  0.000000D+00  0.000000D+00  0.000000D+00  0.000000D+00  0.000000D+00
     45  0.000000D+00  0.000000D+00  0.000000D+00  0.000000D+00  0.000000D+00
     46  0.000000D+00  0.000000D+00  0.000000D+00  0.000000D+00  0.000000D+00
               41            42            43            44            45 
     41  0.000000D+00
     42  0.000000D+00  0.000000D+00
     43  0.000000D+00  0.000000D+00  0.000000D+00
     44  0.000000D+00  0.000000D+00  0.000000D+00  0.000000D+00
     45  0.000000D+00  0.000000D+00  0.000000D+00 -0.913675D+00  0.000000D+00
     46  0.000000D+00  0.000000D+00  0.000000D+00  0.106511D+01  0.000000D+00
               46 
     46  0.000000D+00
 All to All state transition transition dipole moments (Au):
     state I   state J         X           Y           Z
         0        0         -0.3463173855568E-16       0.2623891211308E-15       0.1868554108316E-13
         0        1          0.1032854720227E-14      -0.1729602255646E-14       -2.032325902879    
         1        1          0.1050127651628E-14      -0.6775830115328E-15       0.3398759145045E-13
         0        2         -0.3447903384781E-14       0.8404956270041E-16      -0.2521346689144E-14
         1        2          0.2601790733759E-14      -0.5012037164476E-14       -2.180533560299    
         2        2         -0.6436779518142E-14       0.1752829913842E-14      -0.4958170331349E-13
         0        3         -0.2717588052857E-13       0.7012936217913E-14       0.8078844241437    
         1        3          0.9074805651552E-15      -0.2439026993359E-15       0.3964784314502E-13
         2        3         -0.2596101376602E-13       0.5693665458394E-14       -3.242982243990    
         3        3          0.6101010135846E-15      -0.2746188405130E-16       0.4921192285276E-13
         0        4         -0.4470952944523           -1.379431221089          -0.2225120398963E-15
         1        4          0.5858205714440E-14       0.1581946332588E-13       0.2254526112293E-15
         2        4         -0.4400964339191           -1.357837509745           0.1315421937034E-14
[...]
 Energy =       -1.004580268448    

 CI (t =     24.03887 fs)
 Step =                 9938
 Current electric field (a.u.):
   Ex=  0.0000000   Ey=  0.0000000   Ez= -0.0019329
 CI Dipole moment (au):
    X=     0.3655312727E-14    Y=     0.6225973944E-14    Z=    -0.6423523280E-01 Tot =    0.6423523280E-01
 Energy =       -1.004581339343    

 CI (t =     24.04129 fs)
 Step =                 9939
 Current electric field (a.u.):
   Ex=  0.0000000   Ey=  0.0000000   Ez= -0.0019163
 CI Dipole moment (au):
    X=     0.3302061683E-14    Y=     0.4584552671E-14    Z=    -0.6367990888E-01 Tot =    0.6367990888E-01
 Energy =       -1.004582406299    

 CI (t =     24.04371 fs)
 Step =                 9940
 Current electric field (a.u.):
   Ex=  0.0000000   Ey=  0.0000000   Ez= -0.0018996
 CI Dipole moment (au):
    X=     0.2952825870E-14    Y=     0.2952216915E-14    Z=    -0.6312186388E-01 Tot =    0.6312186388E-01
 Energy =       -1.004583469119    

 CI (t =     24.04613 fs)
 Step =                 9941
 Current electric field (a.u.):
   Ex=  0.0000000   Ey=  0.0000000   Ez= -0.0018829
 CI Dipole moment (au):
    X=     0.2604700523E-14    Y=     0.1334897430E-14    Z=    -0.6256112475E-01 Tot =    0.6256112475E-01
 Energy =       -1.004584527605    

 CI (t =     24.04855 fs)
 Step =                 9942
 Current electric field (a.u.):
   Ex=  0.0000000   Ey=  0.0000000   Ez= -0.0018660
 CI Dipole moment (au):
    X=     0.2252147901E-14    Y=    -0.2632652377E-15    Z=    -0.6199771807E-01 Tot =    0.6199771807E-01
 Energy =       -1.004585581565    

 CI (t =     24.05097 fs)
 Step =                 9943
 Current electric field (a.u.):
   Ex=  0.0000000   Ey=  0.0000000   Ez= -0.0018490
 CI Dipole moment (au):
    X=     0.1887322089E-14    Y=    -0.1839763943E-14    Z=    -0.6143166999E-01 Tot =    0.6143166999E-01
 Energy =       -1.004586630805    

 CI (t =     24.05339 fs)
 Step =                 9944
 Current electric field (a.u.):
   Ex=  0.0000000   Ey=  0.0000000   Ez= -0.0018320
 CI Dipole moment (au):
    X=     0.1500799401E-14    Y=    -0.3393317736E-14    Z=    -0.6086300633E-01 Tot =    0.6086300633E-01
 Energy =       -1.004587675135    

 CI (t =     24.05580 fs)
 Step =                 9945
 Current electric field (a.u.):
   Ex=  0.0000000   Ey=  0.0000000   Ez= -0.0018148
 CI Dipole moment (au):
    X=     0.1082603185E-14    Y=    -0.4923285589E-14    Z=    -0.6029175247E-01 Tot =    0.6029175247E-01
 Energy =       -1.004588714365    

 CI (t =     24.05822 fs)
 Step =                 9946
 Current electric field (a.u.):
   Ex=  0.0000000   Ey=  0.0000000   Ez= -0.0017976
 CI Dipole moment (au):
    X=     0.6233633100E-15    Y=    -0.6429001914E-14    Z=    -0.5971793344E-01 Tot =    0.5971793344E-01
 Energy =       -1.004589748310    

 CI (t =     24.06064 fs)
 Step =                 9947
 Current electric field (a.u.):
   Ex=  0.0000000   Ey=  0.0000000   Ez= -0.0017802
 CI Dipole moment (au):
    X=     0.1154280433E-15    Y=    -0.7909147592E-14    Z=    -0.5914157390E-01 Tot =    0.5914157390E-01
 Energy =       -1.004590776782    

 CI (t =     24.06306 fs)
 Step =                 9948
 Current electric field (a.u.):
   Ex=  0.0000000   Ey=  0.0000000   Ez= -0.0017628
 CI Dipole moment (au):
    X=    -0.4462468054E-15    Y=    -0.9361264472E-14    Z=    -0.5856269813E-01 Tot =    0.5856269813E-01
 Energy =       -1.004591799599    

 CI (t =     24.06548 fs)
 Step =                 9949
 Current electric field (a.u.):
   Ex=  0.0000000   Ey=  0.0000000   Ez= -0.0017453
 CI Dipole moment (au):
    X=    -0.1063570880E-14    Y=    -0.1078149760E-13    Z=    -0.5798133003E-01 Tot =    0.5798133003E-01
 Energy =       -1.004592816578    

 CI (t =     24.06790 fs)
 Step =                 9950
 Current electric field (a.u.):
   Ex=  0.0000000   Ey=  0.0000000   Ez= -0.0017277
 CI Dipole moment (au):
    X=    -0.1735235384E-14    Y=    -0.1216461187E-13    Z=    -0.5739749316E-01 Tot =    0.5739749316E-01
 Energy =       -1.004593827539    

 CI (t =     24.07032 fs)
 Step =                 9951
 Current electric field (a.u.):
   Ex=  0.0000000   Ey=  0.0000000   Ez= -0.0017100
 CI Dipole moment (au):
    X=    -0.2457081619E-14    Y=    -0.1350428430E-13    Z=    -0.5681121070E-01 Tot =    0.5681121070E-01
 Energy =       -1.004594832304    

 CI (t =     24.07274 fs)
 Step =                 9952
 Current electric field (a.u.):
   Ex=  0.0000000   Ey=  0.0000000   Ez= -0.0016922
 CI Dipole moment (au):
    X=    -0.3222858176E-14    Y=    -0.1479362745E-13    Z=    -0.5622250550E-01 Tot =    0.5622250550E-01
 Energy =       -1.004595830695    

 CI (t =     24.07516 fs)
 Step =                 9953
 Current electric field (a.u.):
   Ex=  0.0000000   Ey=  0.0000000   Ez= -0.0016743
 CI Dipole moment (au):
    X=    -0.4025240284E-14    Y=    -0.1602586078E-13    Z=    -0.5563140006E-01 Tot =    0.5563140006E-01
 Energy =       -1.004596822538    

 CI (t =     24.07757 fs)
 Step =                 9954
 Current electric field (a.u.):
   Ex=  0.0000000   Ey=  0.0000000   Ez= -0.0016563
 CI Dipole moment (au):
    X=    -0.4856942870E-14    Y=    -0.1719502171E-13    Z=    -0.5503791651E-01 Tot =    0.5503791651E-01
 Energy =       -1.004597807659    

 CI (t =     24.07999 fs)
 Step =                 9955
 Current electric field (a.u.):
   Ex=  0.0000000   Ey=  0.0000000   Ez= -0.0016383
 CI Dipole moment (au):
    X=    -0.5711744415E-14    Y=    -0.1829660099E-13    Z=    -0.5444207669E-01 Tot =    0.5444207669E-01
 Energy =       -1.004598785886    

 CI (t =     24.08241 fs)
 Step =                 9956
 Current electric field (a.u.):
   Ex=  0.0000000   Ey=  0.0000000   Ez= -0.0016201
 CI Dipole moment (au):
    X=    -0.6585254158E-14    Y=    -0.1932799815E-13    Z=    -0.5384390210E-01 Tot =    0.5384390210E-01
 Energy =       -1.004599757048    

 CI (t =     24.08483 fs)
 Step =                 9957
 Current electric field (a.u.):
   Ex=  0.0000000   Ey=  0.0000000   Ez= -0.0016019
 CI Dipole moment (au):
    X=    -0.7475298064E-14    Y=    -0.2028872214E-13    Z=    -0.5324341390E-01 Tot =    0.5324341390E-01
 Energy =       -1.004600720978    

 CI (t =     24.08725 fs)
 Step =                 9958
 Current electric field (a.u.):
   Ex=  0.0000000   Ey=  0.0000000   Ez= -0.0015836
 CI Dipole moment (au):
    X=    -0.8381862162E-14    Y=    -0.2118030293E-13    Z=    -0.5264063296E-01 Tot =    0.5264063296E-01
 Energy =       -1.004601677509    

 CI (t =     24.08967 fs)
 Step =                 9959
 Current electric field (a.u.):
   Ex=  0.0000000   Ey=  0.0000000   Ez= -0.0015652
 CI Dipole moment (au):
    X=    -0.9306605130E-14    Y=    -0.2200592711E-13    Z=    -0.5203557986E-01 Tot =    0.5203557986E-01
 Energy =       -1.004602626475    

 CI (t =     24.09209 fs)
 Step =                 9960
 Current electric field (a.u.):
   Ex=  0.0000000   Ey=  0.0000000   Ez= -0.0015468
 CI Dipole moment (au):
    X=    -0.1025202331E-13    Y=    -0.2276985539E-13    Z=    -0.5142827485E-01 Tot =    0.5142827485E-01
 Energy =       -1.004603567712    

 CI (t =     24.09451 fs)
 Step =                 9961
 Current electric field (a.u.):
   Ex=  0.0000000   Ey=  0.0000000   Ez= -0.0015282
 CI Dipole moment (au):
    X=    -0.1122040902E-13    Y=    -0.2347671544E-13    Z=    -0.5081873793E-01 Tot =    0.5081873793E-01
 Energy =       -1.004604501058    

 CI (t =     24.09693 fs)
 Step =                 9962
 Current electric field (a.u.):
   Ex=  0.0000000   Ey=  0.0000000   Ez= -0.0015096
 CI Dipole moment (au):
    X=    -0.1221277778E-13    Y=    -0.2413078412E-13    Z=    -0.5020698881E-01 Tot =    0.5020698881E-01
 Energy =       -1.004605426353    

 CI (t =     24.09934 fs)
 Step =                 9963
 Current electric field (a.u.):
   Ex=  0.0000000   Ey=  0.0000000   Ez= -0.0014909
 CI Dipole moment (au):
    X=    -0.1322794576E-13    Y=    -0.2473537477E-13    Z=    -0.4959304695E-01 Tot =    0.4959304695E-01
 Energy =       -1.004606343438    

 CI (t =     24.10176 fs)
 Step =                 9964
 Current electric field (a.u.):
   Ex=  0.0000000   Ey=  0.0000000   Ez= -0.0014721
 CI Dipole moment (au):
    X=    -0.1426191521E-13    Y=    -0.2529242820E-13    Z=    -0.4897693153E-01 Tot =    0.4897693153E-01
 Energy =       -1.004607252155    

 CI (t =     24.10418 fs)
 Step =                 9965
 Current electric field (a.u.):
   Ex=  0.0000000   Ey=  0.0000000   Ez= -0.0014532
 CI Dipole moment (au):
    X=    -0.1530767589E-13    Y=    -0.2580237247E-13    Z=    -0.4835866152E-01 Tot =    0.4835866152E-01
 Energy =       -1.004608152348    

 CI (t =     24.10660 fs)
 Step =                 9966
 Current electric field (a.u.):
   Ex=  0.0000000   Ey=  0.0000000   Ez= -0.0014343
 CI Dipole moment (au):
    X=    -0.1635546297E-13    Y=    -0.2626427264E-13    Z=    -0.4773825564E-01 Tot =    0.4773825564E-01
 Energy =       -1.004609043863    

 CI (t =     24.10902 fs)
 Step =                 9967
 Current electric field (a.u.):
   Ex=  0.0000000   Ey=  0.0000000   Ez= -0.0014153
 CI Dipole moment (au):
    X=    -0.1739343795E-13    Y=    -0.2667624368E-13    Z=    -0.4711573238E-01 Tot =    0.4711573238E-01
 Energy =       -1.004609926546    

 CI (t =     24.11144 fs)
 Step =                 9968
 Current electric field (a.u.):
   Ex=  0.0000000   Ey=  0.0000000   Ez= -0.0013962
 CI Dipole moment (au):
    X=    -0.1840869024E-13    Y=    -0.2703605629E-13    Z=    -0.4649111005E-01 Tot =    0.4649111005E-01
 Energy =       -1.004610800247    

 CI (t =     24.11386 fs)
 Step =                 9969
 Current electric field (a.u.):
   Ex=  0.0000000   Ey=  0.0000000   Ez= -0.0013771
 CI Dipole moment (au):
    X=    -0.1938840486E-13    Y=    -0.2734183328E-13    Z=    -0.4586440672E-01 Tot =    0.4586440672E-01
 Energy =       -1.004611664816    

 CI (t =     24.11628 fs)
 Step =                 9970
 Current electric field (a.u.):
   Ex=  0.0000000   Ey=  0.0000000   Ez= -0.0013578
 CI Dipole moment (au):
    X=    -0.2032101465E-13    Y=    -0.2759271867E-13    Z=    -0.4523564031E-01 Tot =    0.4523564031E-01
 Energy =       -1.004612520102    

 CI (t =     24.11870 fs)
 Step =                 9971
 Current electric field (a.u.):
   Ex=  0.0000000   Ey=  0.0000000   Ez= -0.0013385
 CI Dipole moment (au):
    X=    -0.2119715801E-13    Y=    -0.2778940530E-13    Z=    -0.4460482854E-01 Tot =    0.4460482854E-01
 Energy =       -1.004613365961    

 CI (t =     24.12111 fs)
 Step =                 9972
 Current electric field (a.u.):
   Ex=  0.0000000   Ey=  0.0000000   Ez= -0.0013192
 CI Dipole moment (au):
    X=    -0.2201029453E-13    Y=    -0.2793442963E-13    Z=    -0.4397198900E-01 Tot =    0.4397198900E-01
 Energy =       -1.004614202245    

 CI (t =     24.12353 fs)
 Step =                 9973
 Current electric field (a.u.):
   Ex=  0.0000000   Ey=  0.0000000   Ez= -0.0012997
 CI Dipole moment (au):
    X=    -0.2275688709E-13    Y=    -0.2803217961E-13    Z=    -0.4333713910E-01 Tot =    0.4333713910E-01
 Energy =       -1.004615028811    

 CI (t =     24.12595 fs)
 Step =                 9974
 Current electric field (a.u.):
   Ex=  0.0000000   Ey=  0.0000000   Ez= -0.0012802
 CI Dipole moment (au):
    X=    -0.2343612889E-13    Y=    -0.2808860846E-13    Z=    -0.4270029614E-01 Tot =    0.4270029614E-01
 Energy =       -1.004615845516    

 CI (t =     24.12837 fs)
 Step =                 9975
 Current electric field (a.u.):
   Ex=  0.0000000   Ey=  0.0000000   Ez= -0.0012607
 CI Dipole moment (au):
    X=    -0.2404926846E-13    Y=    -0.2811069490E-13    Z=    -0.4206147730E-01 Tot =    0.4206147730E-01
 Energy =       -1.004616652218    

 CI (t =     24.13079 fs)
 Step =                 9976
 Current electric field (a.u.):
   Ex=  0.0000000   Ey=  0.0000000   Ez= -0.0012410
 CI Dipole moment (au):
    X=    -0.2459865055E-13    Y=    -0.2810573238E-13    Z=    -0.4142069965E-01 Tot =    0.4142069965E-01
 Energy =       -1.004617448777    

 CI (t =     24.13321 fs)
 Step =                 9977
 Current electric field (a.u.):
   Ex=  0.0000000   Ey=  0.0000000   Ez= -0.0012213
 CI Dipole moment (au):
    X=    -0.2508663702E-13    Y=    -0.2808055768E-13    Z=    -0.4077798019E-01 Tot =    0.4077798019E-01
 Energy =       -1.004618235055    

 CI (t =     24.13563 fs)
 Step =                 9978
 Current electric field (a.u.):
   Ex=  0.0000000   Ey=  0.0000000   Ez= -0.0012016
 CI Dipole moment (au):
    X=    -0.2551459067E-13    Y=    -0.2804084011E-13    Z=    -0.4013333583E-01 Tot =    0.4013333583E-01
 Energy =       -1.004619010914    

 CI (t =     24.13805 fs)
 Step =                 9979
 Current electric field (a.u.):
   Ex=  0.0000000   Ey=  0.0000000   Ez= -0.0011817
 CI Dipole moment (au):
    X=    -0.2588209434E-13    Y=    -0.2799054302E-13    Z=    -0.3948678343E-01 Tot =    0.3948678343E-01
 Energy =       -1.004619776217    

 CI (t =     24.14047 fs)
 Step =                 9980
 Current electric field (a.u.):
   Ex=  0.0000000   Ey=  0.0000000   Ez= -0.0011619
 CI Dipole moment (au):
    X=    -0.2618653816E-13    Y=    -0.2793164188E-13    Z=    -0.3883833984E-01 Tot =    0.3883833984E-01
 Energy =       -1.004620530832    

 CI (t =     24.14288 fs)
 Step =                 9981
 Current electric field (a.u.):
   Ex=  0.0000000   Ey=  0.0000000   Ez= -0.0011419
 CI Dipole moment (au):
    X=    -0.2642314737E-13    Y=    -0.2786414187E-13    Z=    -0.3818802185E-01 Tot =    0.3818802185E-01
 Energy =       -1.004621274623    

 CI (t =     24.14530 fs)
 Step =                 9982
 Current electric field (a.u.):
   Ex=  0.0000000   Ey=  0.0000000   Ez= -0.0011219
 CI Dipole moment (au):
    X=    -0.2658544992E-13    Y=    -0.2778638958E-13    Z=    -0.3753584627E-01 Tot =    0.3753584627E-01
 Energy =       -1.004622007459    

 CI (t =     24.14772 fs)
 Step =                 9983
 Current electric field (a.u.):
   Ex=  0.0000000   Ey=  0.0000000   Ez= -0.0011018
 CI Dipole moment (au):
    X=    -0.2666611059E-13    Y=    -0.2769562560E-13    Z=    -0.3688182991E-01 Tot =    0.3688182991E-01
 Energy =       -1.004622729210    

 CI (t =     24.15014 fs)
 Step =                 9984
 Current electric field (a.u.):
   Ex=  0.0000000   Ey=  0.0000000   Ez= -0.0010817
 CI Dipole moment (au):
    X=    -0.2665799763E-13    Y=    -0.2758868589E-13    Z=    -0.3622598961E-01 Tot =    0.3622598961E-01
 Energy =       -1.004623439746    

 CI (t =     24.15256 fs)
 Step =                 9985
 Current electric field (a.u.):
   Ex=  0.0000000   Ey=  0.0000000   Ez= -0.0010616
 CI Dipole moment (au):
    X=    -0.2655530862E-13    Y=    -0.2746273540E-13    Z=    -0.3556834227E-01 Tot =    0.3556834227E-01
 Energy =       -1.004624138939    

 CI (t =     24.15498 fs)
 Step =                 9986
 Current electric field (a.u.):
   Ex=  0.0000000   Ey=  0.0000000   Ez= -0.0010413
 CI Dipole moment (au):
    X=    -0.2635457205E-13    Y=    -0.2731591238E-13    Z=    -0.3490890481E-01 Tot =    0.3490890481E-01
 Energy =       -1.004624826662    

 CI (t =     24.15740 fs)
 Step =                 9987
 Current electric field (a.u.):
   Ex=  0.0000000   Ey=  0.0000000   Ez= -0.0010210
 CI Dipole moment (au):
    X=    -0.2605535989E-13    Y=    -0.2714777613E-13    Z=    -0.3424769427E-01 Tot =    0.3424769427E-01
 Energy =       -1.004625502791    

 CI (t =     24.15982 fs)
 Step =                 9988
 Current electric field (a.u.):
   Ex=  0.0000000   Ey=  0.0000000   Ez= -0.0010007
 CI Dipole moment (au):
    X=    -0.2566059315E-13    Y=    -0.2695948333E-13    Z=    -0.3358472774E-01 Tot =    0.3358472774E-01
 Energy =       -1.004626167202    

 CI (t =     24.16224 fs)
 Step =                 9989
 Current electric field (a.u.):
   Ex=  0.0000000   Ey=  0.0000000   Ez= -0.0009803
 CI Dipole moment (au):
    X=    -0.2517638756E-13    Y=    -0.2675366211E-13    Z=    -0.3292002244E-01 Tot =    0.3292002244E-01
 Energy =       -1.004626819771    

 CI (t =     24.16465 fs)
 Step =                 9990
 Current electric field (a.u.):
   Ex=  0.0000000   Ey=  0.0000000   Ez= -0.0009599
 CI Dipole moment (au):
    X=    -0.2461146087E-13    Y=    -0.2653400283E-13    Z=    -0.3225359570E-01 Tot =    0.3225359570E-01
 Energy =       -1.004627460378    

 CI (t =     24.16707 fs)
 Step =                 9991
 Current electric field (a.u.):
   Ex=  0.0000000   Ey=  0.0000000   Ez= -0.0009394
 CI Dipole moment (au):
    X=    -0.2397619410E-13    Y=    -0.2630463104E-13    Z=    -0.3158546498E-01 Tot =    0.3158546498E-01
 Energy =       -1.004628088902    

 CI (t =     24.16949 fs)
 Step =                 9992
 Current electric field (a.u.):
   Ex=  0.0000000   Ey=  0.0000000   Ez= -0.0009188
 CI Dipole moment (au):
    X=    -0.2328149470E-13    Y=    -0.2606936414E-13    Z=    -0.3091564789E-01 Tot =    0.3091564789E-01
 Energy =       -1.004628705226    

 CI (t =     24.17191 fs)
 Step =                 9993
 Current electric field (a.u.):
   Ex=  0.0000000   Ey=  0.0000000   Ez= -0.0008983
 CI Dipole moment (au):
    X=    -0.2253764132E-13    Y=    -0.2583097291E-13    Z=    -0.3024416220E-01 Tot =    0.3024416220E-01
 Energy =       -1.004629309233    

 CI (t =     24.17433 fs)
 Step =                 9994
 Current electric field (a.u.):
   Ex=  0.0000000   Ey=  0.0000000   Ez= -0.0008776
 CI Dipole moment (au):
    X=    -0.2175329231E-13    Y=    -0.2559056923E-13    Z=    -0.2957102586E-01 Tot =    0.2957102586E-01
 Energy =       -1.004629900806    

 CI (t =     24.17675 fs)
 Step =                 9995
 Current electric field (a.u.):
   Ex=  0.0000000   Ey=  0.0000000   Ez= -0.0008569
 CI Dipole moment (au):
    X=    -0.2093481286E-13    Y=    -0.2534722143E-13    Z=    -0.2889625700E-01 Tot =    0.2889625700E-01
 Energy =       -1.004630479832    

 CI (t =     24.17917 fs)
 Step =                 9996
 Current electric field (a.u.):
   Ex=  0.0000000   Ey=  0.0000000   Ez= -0.0008362
 CI Dipole moment (au):
    X=    -0.2008602298E-13    Y=    -0.2509786254E-13    Z=    -0.2821987398E-01 Tot =    0.2821987398E-01
 Energy =       -1.004631046198    

 CI (t =     24.18159 fs)
 Step =                 9997
 Current electric field (a.u.):
   Ex=  0.0000000   Ey=  0.0000000   Ez= -0.0008155
 CI Dipole moment (au):
    X=    -0.1920839995E-13    Y=    -0.2483750991E-13    Z=    -0.2754189534E-01 Tot =    0.2754189534E-01
 Energy =       -1.004631599793    

 CI (t =     24.18401 fs)
 Step =                 9998
 Current electric field (a.u.):
   Ex=  0.0000000   Ey=  0.0000000   Ez= -0.0007946
 CI Dipole moment (au):
    X=    -0.1830169369E-13    Y=    -0.2455976432E-13    Z=    -0.2686233988E-01 Tot =    0.2686233988E-01
 Energy =       -1.004632140507    

 CI (t =     24.18642 fs)
 Step =                 9999
 Current electric field (a.u.):
   Ex=  0.0000000   Ey=  0.0000000   Ez= -0.0007738
 CI Dipole moment (au):
    X=    -0.1736484648E-13    Y=    -0.2425751204E-13    Z=    -0.2618122664E-01 Tot =    0.2618122664E-01
 Energy =       -1.004632668232    

 CI (t =     24.18884 fs)
 Step =                10000
 Current electric field (a.u.):
   Ex=  0.0000000   Ey=  0.0000000   Ez= -0.0007529
 CI Dipole moment (au):
    X=    -0.1639705822E-13    Y=    -0.2392372028E-13    Z=    -0.2549857490E-01 Tot =    0.2549857490E-01
 Energy =       -1.004633182862    
 Leave Link  912 at Tue Dec 20 08:06:41 2016, MaxMem=  1610612736 cpu:             277.4 elap:              34.7
 (Enter /home1/gaussian/gdv/I03P/gdv/l9999.exe)

 This type of calculation cannot be archived.


 THE CAUTIOUS SELDOM ERR...CONFUCIUS                   
 Job cpu time:       0 days  0 hours  4 minutes 44.1 seconds.
 Elapsed time:       0 days  0 hours  0 minutes 35.5 seconds.
 File lengths (MBytes):  RWF=     13 Int=      2 D2E=      0 Chk=      1 Scr=      1
 Normal termination of Gaussian DV at Tue Dec 20 08:06:41 2016.
